LAMMPS (22 Jul 2025 - Update 4)
OMP_NUM_THREADS environment is not set. Defaulting to 1 thread.
  using 1 OpenMP thread(s) per MPI task
Loaded 1 plugins from C:\Users\xiong\AppData\Local\LAMMPS 64-bit 22Jul2025 with Python\plugins
Reading data file ...
  orthogonal box = (8.4859083 8.4859083 8.4859083) to (41.514092 41.514092 41.514092)
  1 by 1 by 1 MPI processor grid
  reading atoms ...
  3438 atoms
  scanning bonds ...
  3 = max bonds/atom
  scanning angles ...
  6 = max angles/atom
  scanning dihedrals ...
  1 = max dihedrals/atom
  orthogonal box = (8.4859083 8.4859083 8.4859083) to (41.514092 41.514092 41.514092)
  1 by 1 by 1 MPI processor grid
  reading bonds ...
  2340 bonds
  reading angles ...
  1476 angles
  reading dihedrals ...
  36 dihedrals
Finding 1-2 1-3 1-4 neighbors ...
  special bond factors lj:    0        0        1       
  special bond factors coul:  0        0        1       
     4 = max # of 1-2 neighbors
     3 = max # of 1-3 neighbors
     7 = max # of special neighbors
  special bonds CPU = 0.001 seconds
  read_data CPU = 0.072 seconds
Finding SHAKE clusters ...
       0 = # of size 2 clusters
       0 = # of size 3 clusters
       0 = # of size 4 clusters
    1044 = # of frozen angles
  find clusters CPU = 0.001 seconds
PPPM initialization ...
  using 12-bit tables for long-range coulomb
  G vector (1/distance) = 0.22355006
  grid = 15 15 15
  stencil order = 5
  estimated absolute RMS force accuracy = 0.022931391
  estimated relative force accuracy = 6.9057204e-05
  using double precision FFTW3
  3d grid and FFT values/proc = 10648 3375
Generated 0 of 21 mixed pair_coeff terms from geometric mixing rule
Neighbor list info ...
  update: every = 1 steps, delay = 0 steps, check = yes
  max neighbors/atom: 2000, page size: 100000
  master list distance cutoff = 16
  ghost atom cutoff = 16
  binsize = 8, bins = 5 5 5
  1 neighbor lists, perpetual/occasional/extra = 1 0 0
  (1) pair lj/cut/coul/long, perpetual
      attributes: half, newton on
      pair build: half/bin/newton
      stencil: half/bin/3d
      bin: standard
Setting up Verlet run ...
  Unit style    : real
  Current step  : 0
  Time step     : 0.5
WARNING: Inconsistent image flags
For more information see https://docs.lammps.org/err0027 (src/domain.cpp:1052)
Per MPI rank memory allocation (min/avg/max) = 31.83 | 31.83 | 31.83 Mbytes
   Step          Temp          Press          PotEng         TotEng        Density         Volume    
         0   430.88174      3409.384      -20337.346     -17263.833      1.1683987      36029.154    
       500   295.62311     -842.10846     -20306.798     -18198.095      1.1683987      36029.154    
      1000   309.52182      996.79892     -20292.281     -18084.437      1.1683987      36029.154    
      1500   304.31375      1321.004      -20261.723     -18091.029      1.1683987      36029.154    
      2000   297.42302     -111.52447     -20288.388     -18166.846      1.1683987      36029.154    
      2500   296.11003     -218.21718     -20307.218     -18195.042      1.1683987      36029.154    
      3000   297.49428     -533.85091     -20301.61      -18179.56       1.1683987      36029.154    
      3500   301.47869      405.39656     -20315.668     -18165.197      1.1683987      36029.154    
      4000   298.94099     -440.31676     -20288.788     -18156.419      1.1683987      36029.154    
      4500   297.55021     -478.21497     -20268.505     -18146.056      1.1683987      36029.154    
      5000   302.01534      355.47579     -20223.404     -18069.105      1.1683987      36029.154    
      5500   306.61211      420.85516     -20212.173     -18025.085      1.1683987      36029.154    
      6000   298.91838     -525.69741     -20267.704     -18135.496      1.1683987      36029.154    
      6500   297.10987     -662.52888     -20280.988     -18161.68       1.1683987      36029.154    
      7000   297.96531     -100.23537     -20285.321     -18159.911      1.1683987      36029.154    
      7500   300.64413      48.870791     -20253.262     -18108.744      1.1683987      36029.154    
      8000   298.3778       155.26631     -20181.343     -18052.991      1.1683987      36029.154    
      8500   287.38894     -182.12546     -20187.505     -18137.537      1.1683987      36029.154    
      9000   298.15617     -278.65517     -20318.467     -18191.696      1.1683987      36029.154    
      9500   303.00712     -227.81879     -20333.522     -18172.148      1.1683987      36029.154    
     10000   303.28705      262.25604     -20313.322     -18149.951      1.1683987      36029.154    
     10500   301.76283     -573.60297     -20317.108     -18164.61       1.1683987      36029.154    
     11000   295.35662     -336.2375      -20321.804     -18215.002      1.1683987      36029.154    
     11500   294.59647     -407.82517     -20320.241     -18218.861      1.1683987      36029.154    
     12000   301.47407     -320.7969      -20309.443     -18159.005      1.1683987      36029.154    
     12500   297.45096      214.77476     -20226.879     -18105.138      1.1683987      36029.154    
     13000   307.08147      358.29598     -20310.942     -18120.506      1.1683987      36029.154    
     13500   293.26612      122.88805     -20310.95      -18219.06       1.1683987      36029.154    
     14000   298.86954     -331.35514     -20315.588     -18183.729      1.1683987      36029.154    
     14500   310.36473      174.27251     -20342.867     -18129.011      1.1683987      36029.154    
     15000   298.19354      273.17254     -20337.818     -18210.78       1.1683987      36029.154    
     15500   295.98618     -306.27048     -20385.027     -18273.734      1.1683987      36029.154    
     16000   295.65577      302.65602     -20340.24      -18231.304      1.1683987      36029.154    
     16500   297.38841      430.84855     -20300.756     -18179.461      1.1683987      36029.154    
     17000   303.89253      943.1897      -20334.089     -18166.4        1.1683987      36029.154    
     17500   305.17912     -825.36638     -20327.587     -18150.721      1.1683987      36029.154    
     18000   291.58455      988.45931     -20283.584     -18203.688      1.1683987      36029.154    
     18500   296.85165     -404.53522     -20404.642     -18287.176      1.1683987      36029.154    
     19000   294.81679      24.827307     -20385.738     -18282.787      1.1683987      36029.154    
     19500   299.51252     -358.94895     -20353.725     -18217.279      1.1683987      36029.154    
     20000   305.1942       1460.7673     -20362.885     -18185.911      1.1683987      36029.154    
Loop time of 973.354 on 1 procs for 20000 steps with 3438 atoms

Performance: 0.888 ns/day, 27.038 hours/ns, 20.548 timesteps/s, 70.642 katom-step/s
92.4% CPU use with 1 MPI tasks x 1 OpenMP threads

MPI task timing breakdown:
Section |  min time  |  avg time  |  max time  |%varavg| %total
---------------------------------------------------------------
Pair    | 906.12     | 906.12     | 906.12     |   0.0 | 93.09
Bond    | 0.95242    | 0.95242    | 0.95242    |   0.0 |  0.10
Kspace  | 39.281     | 39.281     | 39.281     |   0.0 |  4.04
Neigh   | 13.132     | 13.132     | 13.132     |   0.0 |  1.35
Comm    | 3.4121     | 3.4121     | 3.4121     |   0.0 |  0.35
Output  | 0.28286    | 0.28286    | 0.28286    |   0.0 |  0.03
Modify  | 8.9697     | 8.9697     | 8.9697     |   0.0 |  0.92
Other   |            | 1.203      |            |       |  0.12

Nlocal:           3438 ave        3438 max        3438 min
Histogram: 1 0 0 0 0 0 0 0 0 0
Nghost:          22886 ave       22886 max       22886 min
Histogram: 1 0 0 0 0 0 0 0 0 0
Neighs:    2.81361e+06 ave 2.81361e+06 max 2.81361e+06 min
Histogram: 1 0 0 0 0 0 0 0 0 0

Total # of neighbors = 2813607
Ave neighs/atom = 818.38482
Ave special neighs/atom = 2.2198953
Neighbor list builds = 132
Dangerous builds = 0
System init for write_data ...
PPPM initialization ...
  using 12-bit tables for long-range coulomb
  G vector (1/distance) = 0.22355006
  grid = 15 15 15
  stencil order = 5
  estimated absolute RMS force accuracy = 0.022931391
  estimated relative force accuracy = 6.9057204e-05
  using double precision FFTW3
  3d grid and FFT values/proc = 10648 3375
Generated 0 of 21 mixed pair_coeff terms from geometric mixing rule
WARNING: Not all mixed pair coeffs generated from mixing. Use write_data with 'pair ij' option to store all pair coeffs. (src/write_data.cpp:364)
Total wall time: 0:16:13
LAMMPS (22 Jul 2025 - Update 4)
OMP_NUM_THREADS environment is not set. Defaulting to 1 thread.
  using 1 OpenMP thread(s) per MPI task
Loaded 1 plugins from C:\Users\xiong\AppData\Local\LAMMPS 64-bit 22Jul2025 with Python\plugins
Reading data file ...
  orthogonal box = (8.4859083 8.4859083 8.4859083) to (41.514092 41.514092 41.514092)
  1 by 1 by 1 MPI processor grid
  reading atoms ...
  3438 atoms
  reading velocities ...
  3438 velocities
  scanning bonds ...
  3 = max bonds/atom
  scanning angles ...
  6 = max angles/atom
  scanning dihedrals ...
  1 = max dihedrals/atom
  orthogonal box = (8.4859083 8.4859083 8.4859083) to (41.514092 41.514092 41.514092)
  1 by 1 by 1 MPI processor grid
  reading bonds ...
  2340 bonds
  reading angles ...
  1476 angles
  reading dihedrals ...
  36 dihedrals
Finding 1-2 1-3 1-4 neighbors ...
  special bond factors lj:    0        0        1       
  special bond factors coul:  0        0        1       
     4 = max # of 1-2 neighbors
     3 = max # of 1-3 neighbors
     7 = max # of special neighbors
  special bonds CPU = 0.001 seconds
  read_data CPU = 0.103 seconds
Finding SHAKE clusters ...
       0 = # of size 2 clusters
       0 = # of size 3 clusters
       0 = # of size 4 clusters
    1044 = # of frozen angles
  find clusters CPU = 0.002 seconds
PPPM initialization ...
  using 12-bit tables for long-range coulomb
  G vector (1/distance) = 0.22355006
  grid = 15 15 15
  stencil order = 5
  estimated absolute RMS force accuracy = 0.022931391
  estimated relative force accuracy = 6.9057204e-05
  using double precision FFTW3
  3d grid and FFT values/proc = 10648 3375
Generated 0 of 21 mixed pair_coeff terms from geometric mixing rule
Neighbor list info ...
  update: every = 1 steps, delay = 0 steps, check = yes
  max neighbors/atom: 2000, page size: 100000
  master list distance cutoff = 16
  ghost atom cutoff = 16
  binsize = 8, bins = 5 5 5
  1 neighbor lists, perpetual/occasional/extra = 1 0 0
  (1) pair lj/cut/coul/long, perpetual
      attributes: half, newton on
      pair build: half/bin/newton
      stencil: half/bin/3d
      bin: standard
Setting up Verlet run ...
  Unit style    : real
  Current step  : 0
  Time step     : 0.5
WARNING: Inconsistent image flags
For more information see https://docs.lammps.org/err0027 (src/domain.cpp:1052)
Per MPI rank memory allocation (min/avg/max) = 31.84 | 31.84 | 31.84 Mbytes
   Step          Temp          Press          PotEng         TotEng        Density         Volume    
         0   305.1942       1460.7833     -20362.885     -18185.91       1.1683987      36029.154    
      1000   297.75958     -654.11747     -20317.968     -18194.025      1.1679103      36044.219    
      2000   298.92316     -612.83073     -20323.922     -18191.68       1.1674396      36058.751    
      3000   297.39592      8.2620383     -20302.496     -18181.147      1.1677667      36048.653    
      4000   295.62309     -586.35101     -20294.169     -18185.466      1.1686787      36020.52     
      5000   296.46205     -399.41196     -20297.684     -18182.997      1.170024       35979.105    
      6000   302.1393       49.677208     -20337.603     -18182.42       1.1718742      35922.298    
      7000   301.20173      234.6492      -20325.637     -18177.141      1.1733777      35876.271    
      8000   301.27625      248.68167     -20336.175     -18187.148      1.1747437      35834.553    
      9000   299.51939     -248.46713     -20338.262     -18201.767      1.1761548      35791.561    
     10000   305.96376      342.1095      -20377.795     -18195.331      1.1773576      35754.994    
     11000   295.56398      145.60418     -20311.688     -18203.407      1.1776896      35744.916    
     12000   301.27601      550.64041     -20347.885     -18198.859      1.1771773      35760.473    
     13000   301.84946      200.95668     -20353.24      -18200.124      1.1768378      35770.788    
     14000   302.52552      635.26714     -20364.402     -18206.464      1.1762833      35787.651    
     15000   293.53317     -1221.2967     -20289.752     -18195.957      1.1757969      35802.455    
     16000   292.18442      382.124       -20267.336     -18183.162      1.1762388      35789.003    
     17000   300.8242      -85.333285     -20324.67      -18178.868      1.1766047      35777.873    
     18000   299.61951     -97.853543     -20310.628     -18173.419      1.1765967      35778.117    
     19000   291.79872     -149.76879     -20248.969     -18167.546      1.1766381      35776.858    
     20000   303.50867      1068.5252     -20335.429     -18170.478      1.1761666      35791.201    
     21000   302.00523     -1177.5968     -20318.829     -18164.602      1.1752551      35818.96     
     22000   300.28297     -279.34799     -20304.726     -18162.784      1.1747578      35834.122    
     23000   301.50161     -997.8471      -20321.162     -18170.527      1.1748222      35832.158    
     24000   302.76318      246.06174     -20328.55      -18168.916      1.1751299      35822.776    
     25000   300.50484      60.050049     -20312.596     -18169.072      1.1759098      35799.018    
     26000   298.44124      275.56167     -20310.927     -18182.122      1.1774848      35751.132    
     27000   300.04448     -1236.6607     -20340.819     -18200.578      1.1793371      35694.981    
     28000   303.22788      135.2762      -20351.497     -18188.548      1.1815501      35628.126    
     29000   301.94305     -564.43661     -20349.471     -18195.688      1.1836704      35564.306    
     30000   301.21011      362.2067      -20353.871     -18205.316      1.1855651      35507.469    
     31000   295.28327     -110.41726     -20331.865     -18225.586      1.1870797      35462.165    
     32000   293.23081     -86.47442      -20304.916     -18213.278      1.1879203      35437.071    
     33000   296.17997     -289.12299     -20306.128     -18193.453      1.1882943      35425.917    
     34000   301.44954      35.728012     -20333.715     -18183.451      1.1884457      35421.405    
     35000   300.50997     -556.27544     -20341.352     -18197.791      1.1884866      35420.184    
     36000   303.38519      1012.447      -20372.722     -18208.652      1.1883528      35424.172    
     37000   290.97945     -301.44152     -20276.477     -18200.898      1.1873177      35455.055    
     38000   298.44899      81.935125     -20309.156     -18180.296      1.1861054      35491.295    
     39000   303.21645      388.31428     -20337.791     -18174.924      1.1846885      35533.74     
     40000   297.19721      662.46703     -20292.757     -18172.826      1.1832419      35577.184    
     41000   306.70045      199.92031     -20360.549     -18172.831      1.1818944      35617.747    
     42000   301.61374      33.621489     -20315.289     -18163.855      1.1806107      35656.475    
     43000   306.40382     -98.93831      -20341.977     -18156.374      1.1798081      35680.731    
     44000   300.19214      482.65303     -20303.378     -18162.084      1.179393       35693.289    
     45000   301.78428     -68.453119     -20313.61      -18160.959      1.1791652      35700.183    
     46000   301.10739     -53.275872     -20321.818     -18173.995      1.1790261      35704.396    
     47000   300.46653      325.51595     -20303.764     -18160.513      1.178827       35710.425    
     48000   294.32367     -153.71627     -20255.286     -18155.852      1.1789478      35706.767    
     49000   299.21877     -469.25916     -20299.438     -18165.087      1.1794074      35692.852    
     50000   297.22694      687.82769     -20302.057     -18181.914      1.1795174      35689.525    
     51000   301.76484     -467.74262     -20326.951     -18174.439      1.1789777      35705.862    
     52000   297.91749      36.587323     -20308.848     -18183.779      1.1791475      35700.719    
     53000   303.31511     -250.48337     -20344.225     -18180.654      1.1790059      35705.007    
     54000   298.64479      447.35801     -20309.19      -18178.934      1.1786302      35716.389    
     55000   301.59623     -435.57269     -20323.172     -18171.863      1.1774961      35750.789    
     56000   304.32962      122.44547     -20340.818     -18170.011      1.1759281      35798.46     
     57000   297.92769      472.22791     -20287.96      -18162.819      1.1738889      35860.648    
     58000   294.91968     -355.53525     -20248.674     -18144.989      1.1718956      35921.643    
     59000   303.5092      -982.14962     -20286.36      -18121.405      1.1709167      35951.673    
     60000   300.45098     -426.04507     -20274.262     -18131.122      1.1707783      35955.923    
     61000   295.08328     -413.23521     -20227.137     -18122.285      1.1711335      35945.02     
     62000   299.711       -408.65401     -20282.037     -18144.175      1.1717657      35925.624    
     63000   302.09155      13.644131     -20305.017     -18150.174      1.1725262      35902.323    
     64000   299.60138      695.34716     -20295.101     -18158.021      1.1727352      35895.925    
     65000   298.38991     -54.025596     -20291         -18162.561      1.1727735      35894.752    
     66000   300.41746     -370.78826     -20325.212     -18182.311      1.1728454      35892.553    
     67000   299.75502     -669.87429     -20319.365     -18181.189      1.1730151      35887.361    
     68000   301.15109     -361.04159     -20331.224     -18183.089      1.1740531      35855.632    
     69000   302.35212      484.30069     -20360.15      -18203.448      1.1754129      35814.15     
     70000   297.59593      104.9103      -20327.741     -18204.966      1.1764719      35781.914    
     71000   305.92114     -446.76759     -20378.263     -18196.104      1.1772522      35758.195    
     72000   300.19767      150.50101     -20316.749     -18175.416      1.1776455      35746.255    
     73000   302.12381      228.74022     -20322.508     -18167.435      1.1776259      35746.848    
     74000   304.52562     -210.18103     -20337.649     -18165.444      1.1778313      35740.616    
     75000   304.04351      664.15613     -20362.351     -18193.585      1.178079       35733.1      
     76000   297.28031      631.94547     -20308.822     -18188.298      1.1774182      35753.155    
     77000   304.33325      192.73394     -20335.691     -18164.858      1.176452       35782.519    
     78000   294.5822       148.15298     -20263.917     -18162.639      1.1754683      35812.462    
     79000   304.69842     -935.95926     -20319.349     -18145.912      1.1749512      35828.225    
     80000   306.08823      106.6286      -20336.926     -18153.574      1.1751992      35820.662    
     81000   304.61767     -667.86439     -20333.474     -18160.612      1.1759102      35799.004    
     82000   296.06154      285.25147     -20271.17      -18159.34       1.1771673      35760.776    
     83000   302.6782       375.71866     -20316.4       -18157.373      1.1785472      35718.906    
     84000   308.87799      202.49645     -20375.866     -18172.615      1.1795606      35688.219    
     85000   302.34861     -3.9209168     -20336.37      -18179.693      1.1802897      35666.172    
     86000   304.52456      577.66931     -20345.925     -18173.728      1.1808266      35649.956    
     87000   301.37895      677.56322     -20347.749     -18197.989      1.1807455      35652.404    
     88000   291.09006     -36.669133     -20274.932     -18198.564      1.1797512      35682.451    
     89000   294.03513     -153.14048     -20271.92      -18174.545      1.1783708      35724.253    
     90000   303.81849     -818.13296     -20337.475     -18170.314      1.1768103      35771.625    
     91000   301.66546     -538.70192     -20333.647     -18181.844      1.1754082      35814.295    
     92000   296.59843      366.62805     -20290.42      -18174.76       1.174653       35837.321    
     93000   305.05559      243.49975     -20360.231     -18184.246      1.1740112      35856.912    
     94000   296.14257     -827.76907     -20305.168     -18192.76       1.1733645      35876.675    
     95000   305.99522      708.54388     -20374.013     -18191.325      1.1731258      35883.972    
     96000   304.13495     -21.1819       -20371.376     -18201.958      1.1730964      35884.872    
     97000   292.13833      220.12362     -20274.776     -18190.931      1.1731381      35883.596    
     98000   299.9492      -1025.6478     -20313.479     -18173.918      1.1731963      35881.817    
     99000   305.89504      434.57087     -20352.036     -18170.063      1.1735278      35871.68     
    100000   304.64483      581.42598     -20375.942     -18202.886      1.1738943      35860.483    
    101000   297.20159      610.16515     -20323.496     -18203.533      1.1742448      35849.778    
    102000   299.06797      513.62466     -20319.73      -18186.455      1.1744414      35843.776    
    103000   304.88731      309.6078      -20352.467     -18177.682      1.1742977      35848.164    
    104000   300.39301     -57.218523     -20310.041     -18167.314      1.1741199      35853.59     
    105000   302.68235      413.81352     -20319.807     -18160.75       1.1736012      35869.438    
    106000   297.76701     -389.13927     -20282.359     -18158.363      1.1729632      35888.947    
    107000   294.19977     -414.52274     -20231.344     -18132.794      1.1731575      35883.005    
    108000   304.11601      586.90663     -20295.349     -18126.066      1.1735213      35871.88     
    109000   298.55411     -708.83446     -20251.817     -18122.207      1.1737219      35865.749    
    110000   299.30819     -9.9635198     -20250.777     -18115.789      1.1738429      35862.052    
    111000   300.40744      6.2479347     -20272.13      -18129.301      1.1736774      35867.11     
    112000   297.66164      441.64079     -20248.561     -18125.317      1.1732769      35879.353    
    113000   302.47536      64.260331     -20291.362     -18133.781      1.1727117      35896.645    
    114000   308.6434      -386.10726     -20322.172     -18120.595      1.1723333      35908.233    
    115000   308.03967     -6.656681      -20344.818     -18147.547      1.1722064      35912.118    
    116000   296.67831     -431.53837     -20266.057     -18149.827      1.172345       35907.872    
    117000   302.28039     -451.22162     -20311.964     -18155.775      1.1728233      35893.228    
    118000   300.5686       144.59716     -20309.074     -18165.095      1.173027       35886.997    
    119000   307.58788     -588.33318     -20377.361     -18183.312      1.1731758      35882.443    
    120000   297.94089      418.97989     -20307.935     -18182.699      1.1728394      35892.738    
    121000   297.34808     -47.070043     -20302.041     -18181.034      1.1719815      35919.01     
    122000   295.55443     -454.24971     -20291.861     -18183.648      1.1708836      35952.69     
    123000   295.94481     -724.52106     -20276.669     -18165.672      1.1706872      35958.721    
    124000   297.41172     -98.706926     -20286.25      -18164.789      1.1711478      35944.58     
    125000   297.97363      1134.8852     -20295.218     -18169.749      1.1717783      35925.239    
    126000   296.79735     -45.32416      -20280.078     -18162.999      1.172084       35915.867    
    127000   295.51077      882.7797      -20260.809     -18152.907      1.1723045      35909.114    
    128000   299.9099      -1329.5047     -20295.49      -18156.209      1.1724032      35906.091    
    129000   300.88485      33.905635     -20298.038     -18151.803      1.1731125      35884.382    
    130000   294.19942     -309.39748     -20269.907     -18171.359      1.1738088      35863.092    
    131000   298.96712     -796.95422     -20293.494     -18160.938      1.1748256      35832.054    
    132000   299.15581      758.77236     -20284.969     -18151.067      1.1763578      35785.384    
    133000   305.3368      -119.1594      -20366.715     -18188.724      1.1770554      35764.175    
    134000   301.43739     -488.02701     -20348.829     -18198.652      1.1776789      35745.24     
    135000   302.06928      136.40109     -20354.945     -18200.261      1.178741       35713.032    
    136000   297.58197     -243.15734     -20317.975     -18195.299      1.1798519      35679.406    
    137000   295.97503     -60.415587     -20304.513     -18193.3        1.1805889      35657.132    
    138000   305.7042       124.96141     -20397.182     -18216.57       1.1809388      35646.569    
    139000   300.68638     -235.50008     -20349.856     -18205.036      1.180891       35648.01     
    140000   291.43051     -94.409422     -20269.048     -18190.251      1.1802794      35666.482    
    141000   298.94405     -107.2485      -20325.606     -18193.215      1.1797106      35683.679    
    142000   294.33389     -40.579476     -20299.179     -18199.673      1.1792043      35699.001    
    143000   295.10085      269.86355     -20298.152     -18193.174      1.1788483      35709.781    
    144000   299.78218     -234.52906     -20335.382     -18197.013      1.1783727      35724.195    
    145000   301.39366     -173.20915     -20339.599     -18189.735      1.1782632      35727.514    
    146000   308.28143      285.5175      -20389.162     -18190.166      1.1784505      35721.836    
    147000   301.71558     -435.39693     -20330.576     -18178.416      1.17851        35720.031    
    148000   292.41364     -162.23131     -20250.728     -18164.919      1.1787441      35712.94     
    149000   300.61079      171.00774     -20312.159     -18167.878      1.1788378      35710.1      
    150000   292.58554      627.04024     -20250.974     -18163.939      1.1783871      35723.757    
    151000   299.85784     -441.4919      -20317.783     -18178.873      1.1775797      35748.25     
    152000   298.96622      408.91683     -20317.432     -18184.883      1.17664        35776.8      
    153000   301.87926     -660.93191     -20334.185     -18180.857      1.1755799      35809.064    
    154000   295.61455      38.406706     -20273.475     -18164.834      1.1745417      35840.717    
    155000   303.65381      507.52889     -20320.129     -18154.143      1.1733877      35875.965    
    156000   295.07807     -700.84266     -20249.914     -18145.099      1.1724029      35906.101    
    157000   301.14343     -173.78235     -20293.762     -18145.682      1.1716194      35930.112    
    158000   296.11442      91.714317     -20269.592     -18157.384      1.1709233      35951.471    
    159000   300.85657      151.56653     -20300.97      -18154.937      1.1703479      35969.145    
    160000   297.981       -809.2132      -20289.345     -18163.823      1.1699755      35980.597    
    161000   302.62648     -313.21317     -20303.229     -18144.57       1.1698585      35984.193    
    162000   304.29539     -907.77433     -20328.853     -18158.29       1.1699417      35981.635    
    163000   304.18682     -96.248229     -20330.554     -18160.766      1.1701447      35975.394    
    164000   298.76116     -10.883556     -20292.08      -18160.993      1.1709191      35951.6      
    165000   295.15305      530.05352     -20271.835     -18166.485      1.1716556      35929.001    
    166000   304.26327      40.525729     -20330.909     -18160.575      1.1726106      35899.739    
    167000   295.13812      585.63479     -20262.913     -18157.669      1.1734099      35875.284    
    168000   299.46614     -8.3047615     -20314.623     -18178.508      1.1738885      35860.66     
    169000   293.04588      897.1603      -20255.543     -18165.223      1.1740659      35855.24     
    170000   299.86606     -32.711553     -20312.089     -18173.121      1.1736945      35866.586    
    171000   305.66545     -156.67817     -20356.098     -18175.762      1.1734791      35873.17     
    172000   296.6647      -259.66601     -20304.998     -18188.866      1.1732716      35879.514    
    173000   299.40703     -444.02034     -20312.676     -18176.982      1.1732523      35880.104    
    174000   302.07146      374.26484     -20315.184     -18160.484      1.1734141      35875.156    
    175000   303.16314     -675.34141     -20306.748     -18144.261      1.1734784      35873.191    
    176000   297.7084      -309.6307      -20277.961     -18154.384      1.1733106      35878.32     
    177000   300.71039      282.30935     -20315.149     -18170.159      1.1728983      35890.933    
    178000   299.57317      142.41106     -20330.161     -18193.282      1.1726505      35898.518    
    179000   305.41402     -1088.6489     -20372.629     -18194.087      1.1718404      35923.336    
    180000   303.81938     -333.10511     -20366.369     -18199.202      1.171332       35938.928    
    181000   294.82681     -257.45164     -20305.168     -18202.145      1.1716876      35928.019    
    182000   297.4372       303.36052     -20322.688     -18201.046      1.1719424      35920.208    
    183000   297.59786     -215.15887     -20321.278     -18198.489      1.1718307      35923.632    
    184000   301.54233      32.067736     -20338.311     -18187.386      1.1715395      35932.562    
    185000   301.16299      88.675392     -20339.906     -18191.687      1.1714873      35934.164    
    186000   301.51511      652.78614     -20338.281     -18187.55       1.1716223      35930.022    
    187000   297.74672     -134.52791     -20310.626     -18186.776      1.1717952      35924.722    
    188000   297.15606     -385.34395     -20302.802     -18183.165      1.171803       35924.481    
    189000   298.5018       23.483626     -20289.585     -18160.349      1.1722587      35910.517    
    190000   301.44854     -408.04352     -20305.914     -18155.658      1.1732391      35880.509    
    191000   300.19138      25.972108     -20280.263     -18138.974      1.1744315      35844.079    
    192000   300.02183      164.76725     -20265.328     -18125.249      1.1758716      35800.182    
    193000   302.40909      727.67118     -20302.573     -18145.465      1.1770382      35764.697    
    194000   298.36721      19.680762     -20269.261     -18140.985      1.1775368      35749.555    
    195000   303.49719     -5.8904376     -20314.311     -18149.442      1.1781854      35729.874    
    196000   306.17912      516.97429     -20358.683     -18174.684      1.1780962      35732.579    
    197000   295.99749     -17.190805     -20300.117     -18188.744      1.1771096      35762.53     
    198000   298.44913      53.374105     -20326.252     -18197.391      1.1756918      35805.656    
    199000   299.36131     -437.17983     -20317.942     -18182.575      1.1740711      35855.082    
    200000   303.38513      244.19435     -20331.268     -18167.198      1.1728047      35893.798    
Loop time of 17665.3 on 1 procs for 200000 steps with 3438 atoms

Performance: 0.489 ns/day, 49.070 hours/ns, 11.322 timesteps/s, 38.924 katom-step/s
60.3% CPU use with 1 MPI tasks x 1 OpenMP threads

MPI task timing breakdown:
Section |  min time  |  avg time  |  max time  |%varavg| %total
---------------------------------------------------------------
Pair    | 16374      | 16374      | 16374      |   0.0 | 92.69
Bond    | 13.319     | 13.319     | 13.319     |   0.0 |  0.08
Kspace  | 423.42     | 423.42     | 423.42     |   0.0 |  2.40
Neigh   | 135.85     | 135.85     | 135.85     |   0.0 |  0.77
Comm    | 37.715     | 37.715     | 37.715     |   0.0 |  0.21
Output  | 1.4198     | 1.4198     | 1.4198     |   0.0 |  0.01
Modify  | 664.34     | 664.34     | 664.34     |   0.0 |  3.76
Other   |            | 14.97      |            |       |  0.08

Nlocal:           3438 ave        3438 max        3438 min
Histogram: 1 0 0 0 0 0 0 0 0 0
Nghost:          22914 ave       22914 max       22914 min
Histogram: 1 0 0 0 0 0 0 0 0 0
Neighs:    2.82363e+06 ave 2.82363e+06 max 2.82363e+06 min
Histogram: 1 0 0 0 0 0 0 0 0 0

Total # of neighbors = 2823631
Ave neighs/atom = 821.30047
Ave special neighs/atom = 2.2198953
Neighbor list builds = 1272
Dangerous builds = 0
System init for write_data ...
PPPM initialization ...
  using 12-bit tables for long-range coulomb
  G vector (1/distance) = 0.22363775
  grid = 15 15 15
  stencil order = 5
  estimated absolute RMS force accuracy = 0.022845217
  estimated relative force accuracy = 6.8797693e-05
  using double precision FFTW3
  3d grid and FFT values/proc = 10648 3375
Generated 0 of 21 mixed pair_coeff terms from geometric mixing rule
WARNING: Not all mixed pair coeffs generated from mixing. Use write_data with 'pair ij' option to store all pair coeffs. (src/write_data.cpp:364)
Total wall time: 4:54:25
