ITEM: TIMESTEP
0
ITEM: NUMBER OF ATOMS
3438
ITEM: BOX BOUNDS pp pp pp
8.4859082891960007e+00 4.1514091710804998e+01
8.4859082891960007e+00 4.1514091710804998e+01
8.4859082891960007e+00 4.1514091710804998e+01
ITEM: ATOMS id mol type q x y z
24 8 2 0.4238 9.10835 11.5391 15.5858
190 64 1 -0.8476 16.1213 9.27105 11.768
191 64 2 0.4238 16.5132 9.26322 12.688
220 74 1 -0.8476 16.7191 12.0781 8.56197
253 85 1 -0.8476 16.2133 15.4615 16.0929
254 85 2 0.4238 16.5433 15.6321 15.1645
271 91 1 -0.8476 13.4725 13.2729 14.0286
272 91 2 0.4238 13.6806 13.2604 13.0506
273 91 2 0.4238 12.5049 13.4878 14.1608
283 95 1 -0.8476 10.5874 14.1088 14.7353
284 95 2 0.4238 10.3476 13.2303 15.1484
285 95 2 0.4238 10.3371 14.8496 15.3586
349 117 1 -0.8476 10.7519 11.5505 16.0459
351 117 2 0.4238 11.4292 11.0067 15.5504
376 126 1 -0.8476 14.213 13.2695 16.5303
377 126 2 0.4238 13.737 13.3528 15.6548
378 126 2 0.4238 14.8905 14.0005 16.6122
630 210 2 0.4238 8.97816 16.6779 10.1719
715 239 1 -0.8476 10.0134 14.1072 12.0825
716 239 2 0.4238 9.54579 14.9655 11.8713
717 239 2 0.4238 10.1316 14.0267 13.0722
793 265 1 -0.8476 14.2359 10.6269 10.63
794 265 2 0.4238 15.0325 10.1452 10.9952
795 265 2 0.4238 14.3148 11.603 10.8326
848 283 2 0.4238 14.6335 16.6905 16.7394
1027 343 1 -0.8476 9.29199 11.6651 11.554
1028 343 2 0.4238 9.58574 12.5841 11.8171
1029 343 2 0.4238 10.0714 11.159 11.1848
1105 369 1 -0.8476 14.2658 13.1912 11.1934
1106 369 2 0.4238 13.4871 13.6035 10.7205
1107 369 2 0.4238 15.0675 13.7802 11.0916
1337 446 2 0.4238 8.80995 13.61 8.57265
1338 446 2 0.4238 8.76191 12.1198 9.23876
1417 473 1 -0.8476 16.5339 12.487 14.7586
1419 473 2 0.4238 15.5693 12.7502 14.7721
2329 777 1 -0.8476 12.6997 10.3962 14.5847
2330 777 2 0.4238 13.3992 11.0785 14.3723
2331 777 2 0.4238 12.7791 9.62835 13.949
2357 786 2 0.4238 14.4229 9.82484 9.03774
2359 787 1 -0.8476 16.0154 9.99942 16.4084
2360 787 2 0.4238 15.8065 10.9094 16.0503
2545 849 1 -0.8476 16.416 14.9964 10.7761
2546 849 2 0.4238 16.1025 15.8174 11.2533
2749 917 1 -0.8476 12.0345 14.2497 10.1415
2750 917 2 0.4238 11.2695 14.245 10.7855
2751 917 2 0.4238 11.7371 13.8644 9.26794
2878 960 1 -0.8476 11.2732 10.256 10.4971
2879 960 2 0.4238 12.2628 10.3984 10.4789
2880 960 2 0.4238 11.0783 9.27722 10.5604
3295 1081 4 -0.108 8.53082 16.658 16.0637
3338 1086 4 -0.108 13.296 16.6598 13.86
16 6 1 -0.8476 20.7377 15.834 9.80238
17 6 2 0.4238 20.5538 14.8989 9.49948
18 6 2 0.4238 20.3 15.9897 10.6879
222 74 2 0.4238 17.6626 12.4076 8.59758
255 85 2 0.4238 16.9827 15.4916 16.7309
419 140 2 0.4238 18.7885 16.0478 8.57384
672 224 2 0.4238 19.8027 15.1863 16.5993
700 234 1 -0.8476 24.7914 13.5254 15.5806
701 234 2 0.4238 24.2903 12.6646 15.669
702 234 2 0.4238 24.1865 14.2259 15.202
892 298 1 -0.8476 24.1812 10.65 16.1286
893 298 2 0.4238 23.9038 10.2676 15.2472
894 298 2 0.4238 24.5178 9.91651 16.7191
976 326 1 -0.8476 19.9523 10.458 11.8751
977 326 2 0.4238 19.9364 11.1021 12.6399
978 326 2 0.4238 20.6098 10.7707 11.1896
994 332 1 -0.8476 24.1223 9.27006 11.449
996 332 2 0.4238 24.294 9.91404 10.7035
1330 444 1 -0.8476 24.8057 10.2397 8.9208
1331 444 2 0.4238 24.5698 11.1457 8.56943
1374 458 2 0.4238 22.9024 15.9456 16.3288
1418 473 2 0.4238 16.9123 12.6539 13.8481
1624 542 1 -0.8476 20.4387 9.66914 16.6206
1625 542 2 0.4238 20.8085 8.77507 16.3679
1626 542 2 0.4238 20.2347 10.1916 15.7927
1638 546 2 0.4238 19.7953 8.76672 11.8384
1720 574 1 -0.8476 18.0602 15.3078 13.7339
1721 574 2 0.4238 18.0515 14.6787 12.9566
1722 574 2 0.4238 18.7547 15.0156 14.3914
1753 585 1 -0.8476 23.6153 16.6971 9.92172
1754 585 2 0.4238 22.7243 16.2432 9.92826
1755 585 2 0.4238 24.3221 16.0479 10.2026
2494 832 1 -0.8476 17.6315 12.9349 12.1569
2495 832 2 0.4238 16.9967 13.6128 11.7861
2496 832 2 0.4238 17.5167 12.0692 11.6696
2547 849 2 0.4238 17.1599 15.2369 10.1526
2548 850 1 -0.8476 19.4287 11.5245 14.6329
2549 850 2 0.4238 18.476 11.7608 14.4418
2550 850 2 0.4238 19.8291 12.2151 15.2351
3070 1024 1 -0.8476 23.2414 9.24312 14.0793
3071 1024 2 0.4238 23.5508 9.36358 13.136
3072 1024 2 0.4238 22.3657 8.76034 14.0837
3074 1025 2 0.4238 17.5778 8.87626 14.6772
3199 1069 4 -0.108 21.5274 11.2163 9.38576
3205 1069 7 -0.562 19.3908 13.4236 8.58626
3391 1093 4 -0.108 23.0133 13.8872 11.6538
3392 1093 5 0.23 22.1133 13.4405 12.521
3393 1093 4 -0.108 22.6095 12.294 13.0252
3394 1093 4 -0.108 21.0344 13.0721 11.8284
3395 1093 6 0.78 21.7652 14.7718 13.9222
3396 1093 7 -0.562 20.9381 15.7002 13.2496
3397 1093 7 -0.562 21.0857 14.0343 15.0093
3398 1093 7 -0.562 23.0823 15.2806 14.3148
184 62 1 -0.8476 31.1504 10.3239 13.1558
185 62 2 0.4238 30.3106 10.217 12.6235
186 62 2 0.4238 31.8703 9.75304 12.761
202 68 1 -0.8476 27.5314 10.2024 15.4638
203 68 2 0.4238 27.3572 11.0007 16.0403
204 68 2 0.4238 28.5004 10.1734 15.2185
430 144 1 -0.8476 30.5954 16.3922 13.0296
432 144 2 0.4238 30.5668 15.4141 13.2358
469 157 1 -0.8476 27.2961 12.5285 16.622
470 157 2 0.4238 26.5219 12.9138 16.1199
517 173 1 -0.8476 26.1586 11.2341 13.1367
518 173 2 0.4238 25.3548 10.6488 13.0303
519 173 2 0.4238 26.7604 10.8499 13.8369
610 204 1 -0.8476 27.7164 9.96676 9.32019
611 204 2 0.4238 28.0876 9.22236 8.76514
612 204 2 0.4238 28.3967 10.6955 9.39831
1042 348 1 -0.8476 33.0867 12.8132 12.9265
1044 348 2 0.4238 33.1 11.8566 12.6355
1226 409 2 0.4238 33.1318 15.3189 9.31594
1273 425 1 -0.8476 30.5111 13.754 13.6002
1274 425 2 0.4238 31.3558 13.421 13.1812
1275 425 2 0.4238 30.4696 13.4514 14.5524
1332 444 2 0.4238 25.7782 10.2149 9.15232
1529 510 2 0.4238 25.9409 14.8843 9.39045
1780 594 1 -0.8476 28.5047 13.8312 11.6422
1781 594 2 0.4238 27.5189 13.7672 11.7973
1782 594 2 0.4238 28.9893 13.6468 12.4973
1888 630 1 -0.8476 29.4555 16.2026 10.5463
1889 630 2 0.4238 29.312 15.2776 10.8981
2006 669 2 0.4238 29.0884 15.2061 8.55044
2068 690 1 -0.8476 31.2751 14.0356 16.3243
2069 690 2 0.4238 32.2445 14.2776 16.3655
2070 690 2 0.4238 31.1834 13.0542 16.1555
2185 729 1 -0.8476 25.8219 15.667 10.9425
2186 729 2 0.4238 25.9078 16.6545 11.0749
2187 729 2 0.4238 25.9156 15.2032 11.8235
2296 766 1 -0.8476 29.1661 12.2228 9.58264
2297 766 2 0.4238 30.1222 11.9308 9.60813
2298 766 2 0.4238 28.9751 12.8077 10.3709
2318 773 2 0.4238 25.0768 16.4643 13.9221
2326 776 1 -0.8476 32.1806 13.9841 8.61154
2327 776 2 0.4238 31.2372 14.3103 8.55145
2328 776 2 0.4238 32.205 13.1281 9.12803
2410 804 1 -0.8476 31.6109 11.2988 9.47566
2411 804 2 0.4238 31.4983 10.4064 9.03867
2412 804 2 0.4238 32.4057 11.2751 10.082
2824 942 1 -0.8476 28.9764 9.34853 11.9352
2825 942 2 0.4238 28.1172 9.64098 11.5153
2826 942 2 0.4238 29.4886 8.78408 11.2878
2902 968 1 -0.8476 30.8457 11.4959 15.6597
2903 968 2 0.4238 30.9086 10.794 16.3692
2904 968 2 0.4238 30.9314 11.0686 14.7597
3037 1013 1 -0.8476 25.8232 13.7943 12.9541
3038 1013 2 0.4238 25.6107 13.8452 13.9299
3039 1013 2 0.4238 25.9519 12.8383 12.6904
22 8 1 -0.8476 41.1653 11.47 15.3579
23 8 2 0.4238 40.9939 10.604 14.8882
94 32 1 -0.8476 36.4889 15.0203 13.4017
95 32 2 0.4238 36.063 14.7202 12.5481
96 32 2 0.4238 36.5446 14.2489 14.0356
127 43 1 -0.8476 38.5207 11.6195 10.3299
128 43 2 0.4238 39.1441 10.9216 9.97737
129 43 2 0.4238 37.5763 11.3116 10.2147
217 73 1 -0.8476 33.907 15.9848 15.9728
219 73 2 0.4238 34.0622 15.0594 15.6271
550 184 1 -0.8476 36.7136 12.1864 15.0976
551 184 2 0.4238 37.6248 12.5628 15.2648
552 184 2 0.4238 36.6601 11.2623 15.476
681 227 2 0.4238 36.9591 16.1414 11.3272
1043 348 2 0.4238 33.7815 13.325 12.4212
1141 381 1 -0.8476 36.4031 15.422 8.67975
1143 381 2 0.4238 37.0438 14.905 9.24736
1225 409 1 -0.8476 33.5544 16.1061 9.76501
1299 433 2 0.4238 39.9952 11.3434 16.5507
1609 537 1 -0.8476 37.2036 9.28742 16.7426
1610 537 2 0.4238 36.9937 9.21296 15.7677
1675 559 1 -0.8476 38.9974 13.7819 15.3568
1676 559 2 0.4238 39.1709 14.5621 14.7558
1677 559 2 0.4238 39.7463 13.1244 15.2741
1843 615 1 -0.8476 37.9073 9.38364 13.7474
1844 615 2 0.4238 38.5456 10.1357 13.5832
1845 615 2 0.4238 37.0874 9.51456 13.19
1921 641 1 -0.8476 38.7512 14.4274 10.8958
1922 641 2 0.4238 38.6168 13.445 10.7659
1923 641 2 0.4238 38.987 14.6082 11.8506
1944 648 2 0.4238 36.0759 16.6666 13.6582
2071 691 1 -0.8476 40.8688 14.9611 9.24117
2072 691 2 0.4238 40.3847 15.4891 8.54341
2073 691 2 0.4238 40.2576 14.7909 10.0141
2143 715 1 -0.8476 35.033 14.1932 11.3187
2144 715 2 0.4238 35.1053 13.5043 10.5975
2145 715 2 0.4238 34.6069 15.019 10.9493
2164 722 1 -0.8476 40.3525 16.1712 12.9137
2165 722 2 0.4238 40.1313 16.2147 11.9394
2659 887 1 -0.8476 39.7018 11.498 12.7962
2660 887 2 0.4238 39.1605 11.6458 11.9684
2661 887 2 0.4238 40.6596 11.7184 12.6119
2713 905 1 -0.8476 34.0767 13.0292 15.67
2714 905 2 0.4238 35.0396 12.7611 15.6403
2715 905 2 0.4238 33.6721 12.9198 14.7621
2893 965 1 -0.8476 40.621 10.0173 9.2842
2894 965 2 0.4238 41.1817 9.43036 8.70018
2895 965 2 0.4238 41.0155 10.0483 10.2026
3352 1088 5 0.23 34.672 8.502 9.96065
3353 1088 4 -0.108 34.3522 8.67841 8.6314
3355 1088 6 0.78 35.1771 10.3659 10.7825
3356 1088 7 -0.562 33.9064 11.0532 11.0346
3357 1088 7 -0.562 35.9477 10.1185 12.0061
3358 1088 7 -0.562 35.9658 10.9577 9.68383
478 160 1 -0.8476 10.5071 22.072 12.2708
479 160 2 0.4238 11.1561 22.711 11.8579
480 160 2 0.4238 10.386 21.2836 11.6677
628 210 1 -0.8476 9.50247 17.1348 10.8904
629 210 2 0.4238 10.4612 16.8565 10.8317
661 221 1 -0.8476 16.3276 21.9986 13.593
662 221 2 0.4238 15.7079 21.2844 13.2676
663 221 2 0.4238 15.91 22.4752 14.3666
691 231 1 -0.8476 13.3638 22.6432 15.482
692 231 2 0.4238 12.7957 23.2982 14.9838
693 231 2 0.4238 14.278 23.0268 15.6127
725 242 2 0.4238 16.4706 19.0426 10.0921
743 248 2 0.4238 8.96022 22.1704 12.8197
805 269 1 -0.8476 13.5864 23.8072 8.72352
807 269 2 0.4238 14.1468 23.0597 9.08025
808 270 1 -0.8476 11.7337 24.5199 14.0758
809 270 2 0.4238 11.7346 24.7366 13.0995
829 277 1 -0.8476 14.7154 21.5929 10.299
830 277 2 0.4238 14.1552 21.0209 10.8982
831 277 2 0.4238 15.336 21.0139 9.77026
849 283 2 0.4238 13.0856 17.1862 16.5817
958 320 1 -0.8476 10.8103 21.7527 14.9772
959 320 2 0.4238 10.7857 21.7593 13.9775
960 320 2 0.4238 10.0017 22.2208 15.3336
985 329 1 -0.8476 11.9768 24.1428 10.8639
986 329 2 0.4238 11.1318 24.6391 10.6649
987 329 2 0.4238 12.5823 24.1834 10.0691
1132 378 1 -0.8476 16.2417 20.334 8.54989
1582 528 1 -0.8476 8.61255 23.4921 15.6329
1583 528 2 0.4238 9.14582 24.3181 15.4505
1693 565 1 -0.8476 10.2741 19.6525 11.2946
1694 565 2 0.4238 11.2034 19.5483 11.649
1695 565 2 0.4238 9.84745 18.7522 11.2081
1789 597 1 -0.8476 16.1377 24.6109 10.7418
1790 597 2 0.4238 15.6386 23.8085 11.069
2056 686 1 -0.8476 15.8076 23.4824 15.6756
2057 686 2 0.4238 15.9988 24.4617 15.7422
2058 686 2 0.4238 16.3484 22.9901 16.3576
2836 946 1 -0.8476 10.0246 20.7345 8.69439
2838 946 2 0.4238 10.1053 20.3643 9.61982
3138 1050 3 2 12.2474 21.0346 16.064
3169 1065 4 -0.108 12.0542 18.0701 8.88371
3296 1081 5 0.23 9.1244 17.8272 15.844
3298 1081 4 -0.108 9.8717 17.6835 14.6795
3335 1086 4 -0.108 12.6131 17.4316 11.908
3336 1086 5 0.23 13.6326 17.4849 12.8502
3337 1086 4 -0.108 14.7542 16.9749 12.3058
3339 1086 6 0.78 13.7414 19.3398 13.4873
3340 1086 7 -0.562 13.3548 20.0784 12.3435
3341 1086 7 -0.562 12.8245 19.5075 14.6063
3342 1086 7 -0.562 15.1454 19.4488 13.805
136 46 1 -0.8476 18.4693 23.4641 12.831
137 46 2 0.4238 18.3005 24.2407 12.2241
138 46 2 0.4238 17.5967 23.0637 13.1106
352 118 1 -0.8476 20.8167 18.5791 9.00921
354 118 2 0.4238 20.9197 17.6024 9.19752
491 164 2 0.4238 24.8127 20.6277 10.2844
520 174 1 -0.8476 24.1722 23.7202 10.5568
521 174 2 0.4238 24.2192 23.9531 9.58543
522 174 2 0.4238 24.4528 22.7691 10.6855
532 178 1 -0.8476 20.5506 19.0697 11.9309
533 178 2 0.4238 20.5459 18.8513 10.955
534 178 2 0.4238 21.4864 19.2652 12.2242
589 197 1 -0.8476 18.3507 20.6897 12.1419
590 197 2 0.4238 17.8918 21.4965 12.5141
591 197 2 0.4238 18.4908 20.8096 11.159
694 232 1 -0.8476 20.6838 23.058 10.166
695 232 2 0.4238 19.9485 23.7158 10.0028
696 232 2 0.4238 20.2899 22.1647 10.3825
724 242 1 -0.8476 16.9528 18.1948 10.3128
726 242 2 0.4238 17.0182 17.6255 9.49326
835 279 1 -0.8476 20.1364 23.3022 15.1004
836 279 2 0.4238 20.4052 24.1762 15.5052
837 279 2 0.4238 19.6383 23.4682 14.2493
1333 445 1 -0.8476 20.2193 17.9947 14.521
1334 445 2 0.4238 20.5847 17.1546 14.1201
1335 445 2 0.4238 20.7019 18.1944 15.3738
1351 451 1 -0.8476 24.0828 19.4906 9.22672
1353 451 2 0.4238 23.8834 18.5341 9.43956
1627 543 1 -0.8476 21.8489 18.8126 16.4812
1629 543 2 0.4238 22.823 18.7878 16.2563
1738 580 1 -0.8476 24.4597 19.0302 16.1135
1740 580 2 0.4238 24.3233 19.7946 15.4834
2188 730 1 -0.8476 18.7059 24.9969 10.3096
2497 833 1 -0.8476 19.2803 20.7676 9.49136
2498 833 2 0.4238 19.6586 19.8508 9.36307
2499 833 2 0.4238 18.7809 21.0402 8.66899
2641 881 1 -0.8476 20.3957 20.7838 14.1928
2642 881 2 0.4238 20.2564 21.6789 14.6162
2643 881 2 0.4238 21.2992 20.4345 14.4411
2722 908 1 -0.8476 17.7755 19.4897 14.7926
2723 908 2 0.4238 16.7959 19.4655 14.5933
2724 908 2 0.4238 17.9221 19.3118 15.7657
2857 953 1 -0.8476 22.8894 18.7655 13.0396
2858 953 2 0.4238 23.6892 19.1841 13.4699
2859 953 2 0.4238 23.118 17.8387 12.7416
3067 1023 1 -0.8476 21.889 24.7722 12.0328
3068 1023 2 0.4238 21.3444 24.0198 11.6621
3118 1040 1 -0.8476 18.0587 17.7246 12.7345
3119 1040 2 0.4238 17.6216 17.647 11.8384
3120 1040 2 0.4238 18.0515 16.8329 13.1871
3145 1057 3 2 19.1531 19.275 13.3959
3148 1060 3 2 23.9398 24.915 12.1164
3435 1098 6 0.78 24.4969 21.8725 14.2607
3436 1098 7 -0.562 23.5148 21.497 15.3062
3437 1098 7 -0.562 24.0788 23.0682 13.4103
3438 1098 7 -0.562 24.9882 20.7457 13.5036
46 16 1 -0.8476 27.8795 23.8535 10.6769
47 16 2 0.4238 28.6444 23.2726 10.3987
48 16 2 0.4238 28.1876 24.8028 10.7401
157 53 1 -0.8476 28.401 17.9362 14.1153
158 53 2 0.4238 28.6689 18.1869 15.0456
159 53 2 0.4238 27.4774 17.553 14.1262
199 67 1 -0.8476 30.121 22.4218 11.0895
200 67 2 0.4238 30.3048 22.2767 10.1173
201 67 2 0.4238 29.9544 21.5408 11.5323
431 144 2 0.4238 29.7325 16.8162 13.3045
490 164 1 -0.8476 25.432 21.2348 10.7823
492 164 2 0.4238 25.4272 20.9929 11.7526
884 295 2 0.4238 33.0619 19.6516 14.5113
885 295 2 0.4238 33.1158 18.9865 13.0209
951 317 2 0.4238 29.3907 24.6214 8.72923
1021 341 1 -0.8476 27.9362 20.2015 9.91187
1022 341 2 0.4238 28.4528 20.0367 10.7521
1023 341 2 0.4238 27.1258 20.7488 10.1208
1039 347 1 -0.8476 32.182 20.5695 15.6003
1040 347 2 0.4238 31.7224 21.4032 15.2942
1041 347 2 0.4238 32.3621 20.6295 16.5821
1480 494 1 -0.8476 31.2298 23.1278 15.0116
1481 494 2 0.4238 30.8928 23.6447 14.2246
1482 494 2 0.4238 30.779 23.4541 15.8424
1633 545 1 -0.8476 30.2128 21.5218 8.64204
1634 545 2 0.4238 29.557 20.8493 8.98507
1784 595 2 0.4238 33.1211 23.5338 14.2974
1873 625 1 -0.8476 31.8262 17.9091 16.4448
1874 625 2 0.4238 32.1822 18.7687 16.0781
1875 625 2 0.4238 32.4386 17.16 16.1923
1890 630 2 0.4238 29.9022 16.7599 11.2462
2029 677 1 -0.8476 29.9447 24.2906 13.1432
2031 677 2 0.4238 29.9029 23.9075 12.2204
2122 708 1 -0.8476 28.955 20.2646 12.5944
2123 708 2 0.4238 28.9807 19.2681 12.6741
2124 708 2 0.4238 28.6543 20.6608 13.462
2317 773 1 -0.8476 25.722 17.1931 14.1515
2319 773 2 0.4238 25.4636 17.6041 15.0258
2338 780 1 -0.8476 30.7275 18.7623 9.64919
2339 780 2 0.4238 31.4761 18.782 10.312
2340 780 2 0.4238 30.2601 17.8797 9.70039
2468 823 2 0.4238 26.5205 23.44 9.16487
2521 841 1 -0.8476 32.465 17.6657 11.6856
2522 841 2 0.4238 32.749 17.0282 10.9694
2523 841 2 0.4238 31.9215 17.1785 12.3692
2539 847 1 -0.8476 29.2796 18.525 16.6043
2541 847 2 0.4238 30.2413 18.3463 16.3964
3006 1002 2 0.4238 26.4177 24.5448 11.9496
3431 1098 4 -0.108 26.3475 21.7098 16.0534
3432 1098 5 0.23 26.0978 22.5553 15.0933
3433 1098 4 -0.108 27.2156 22.6265 14.3167
3434 1098 4 -0.108 25.9556 23.7856 15.6547
214 72 1 -0.8476 38.5224 24.774 15.6367
216 72 2 0.4238 37.5675 24.6458 15.9044
277 93 1 -0.8476 36.2498 19.4577 12.3198
278 93 2 0.4238 36.5953 20.1428 11.6785
279 93 2 0.4238 36.3103 18.5506 11.9032
327 109 2 0.4238 37.4136 24.7733 10.4589
559 187 1 -0.8476 38.3122 22.182 13.9292
560 187 2 0.4238 39.2361 21.8395 13.7588
561 187 2 0.4238 38.3605 23.0009 14.5012
679 227 1 -0.8476 36.746 17.035 10.9322
680 227 2 0.4238 36.2865 16.9098 10.0529
742 248 1 -0.8476 41.1389 22.2843 13.3348
744 248 2 0.4238 41.3128 22.8444 14.1448
769 257 1 -0.8476 35.1629 19.5323 16.1596
770 257 2 0.4238 34.6184 20.1808 16.6915
883 295 1 -0.8476 33.6654 19.3489 13.7736
952 318 1 -0.8476 35.7903 21.532 14.1925
953 318 2 0.4238 36.7478 21.8024 14.0918
954 318 2 0.4238 35.2001 22.3129 13.9878
1227 409 2 0.4238 33.8638 16.7582 9.0729
1543 515 1 -0.8476 36.6945 21.5913 10.506
1544 515 2 0.4238 36.7704 20.9171 9.77135
1545 515 2 0.4238 37.5896 22.0049 10.6726
1584 528 2 0.4238 41.0747 23.6334 16.4451
1612 538 1 -0.8476 39.6036 22.107 10.244
1613 538 2 0.4238 39.6107 22.7449 11.0141
1614 538 2 0.4238 40.0145 22.5451 9.44448
1783 595 1 -0.8476 34.0758 23.5637 14.0014
1785 595 2 0.4238 34.1143 23.7344 13.0168
1846 616 1 -0.8476 38.712 24.3688 11.8586
1847 616 2 0.4238 38.1174 23.7487 12.3703
1848 616 2 0.4238 39.3937 24.7619 12.4757
1942 648 1 -0.8476 35.6317 17.4063 14.1637
1943 648 2 0.4238 34.9326 17.0241 14.768
2050 684 1 -0.8476 39.983 19.786 12.8592
2051 684 2 0.4238 40.5609 20.5786 13.0537
2052 684 2 0.4238 40.0507 19.5543 11.8888
2086 696 1 -0.8476 35.8728 24.3824 16.0501
2087 696 2 0.4238 35.0824 24.1888 15.4688
2166 722 2 0.4238 40.8322 17.0059 13.1842
2212 738 1 -0.8476 40.0204 19.5912 8.50535
2214 738 2 0.4238 40.5037 20.2221 9.11229
2557 853 1 -0.8476 39.3328 17.4664 10.2057
2558 853 2 0.4238 39.4882 17.9004 9.3183
2559 853 2 0.4238 38.3646 17.5361 10.4458
2581 861 1 -0.8476 34.8909 23.7941 11.3466
2582 861 2 0.4238 35.0308 22.8954 10.931
2583 861 2 0.4238 35.4986 24.4598 10.9136
2869 957 1 -0.8476 37.5597 19.3401 14.6685
2870 957 2 0.4238 38.2581 19.2763 13.9557
2871 957 2 0.4238 37.9945 19.5552 15.5429
3136 1048 3 2 35.6099 19.4666 14.131
3297 1081 4 -0.108 41.1708 18.6921 15.5908
88 30 1 -0.8476 15.1476 33.1559 16.6358
187 63 1 -0.8476 11.9954 30.3057 8.99052
188 63 2 0.4238 11.3957 31.0914 9.14244
406 136 1 -0.8476 9.86787 28.7612 10.8959
407 136 2 0.4238 9.66015 28.4491 11.823
408 136 2 0.4238 9.18443 29.4326 10.6092
415 139 1 -0.8476 12.8898 29.5312 14.9226
416 139 2 0.4238 12.9714 28.6045 15.2895
417 139 2 0.4238 12.944 30.1921 15.6711
445 149 1 -0.8476 16.0627 32.3091 9.0349
447 149 2 0.4238 16.0557 31.4033 8.61127
631 211 1 -0.8476 13.968 30.9951 10.6855
632 211 2 0.4238 13.379 30.7597 9.91243
633 211 2 0.4238 14.4259 30.1709 11.0188
673 225 1 -0.8476 9.72207 25.6048 10.0251
674 225 2 0.4238 9.44408 26.3621 10.6161
675 225 2 0.4238 9.60638 25.8694 9.0677
757 253 1 -0.8476 9.99442 26.2455 15.4382
758 253 2 0.4238 9.72059 26.2976 16.3986
759 253 2 0.4238 9.51552 26.9514 14.9163
775 259 1 -0.8476 16.0549 31.7194 14.4329
776 259 2 0.4238 15.4329 32.0088 15.1605
777 259 2 0.4238 16.6072 30.9497 14.7531
810 270 2 0.4238 11.1668 25.1835 14.5639
922 308 1 -0.8476 8.61466 28.0431 13.3046
931 311 1 -0.8476 14.5146 29.134 12.7179
932 311 2 0.4238 15.5023 29.0777 12.8639
933 311 2 0.4238 14.0726 29.4639 13.552
1459 487 1 -0.8476 16.4073 31.7618 11.7773
1460 487 2 0.4238 16.5069 31.7777 12.7722
1504 502 1 -0.8476 14.4664 26.5673 9.17689
1505 502 2 0.4238 13.6365 26.9144 9.61374
1506 502 2 0.4238 14.2246 25.847 8.52679
1678 560 1 -0.8476 8.67232 33.1123 13.9298
1791 597 2 0.4238 15.5698 25.114 10.0904
2020 674 1 -0.8476 12.3367 31.6432 13.2163
2021 674 2 0.4238 11.3833 31.5519 12.9288
2022 674 2 0.4238 12.6146 30.8219 13.7146
2672 891 2 0.4238 13.5208 32.9983 12.8179
2683 895 1 -0.8476 15.7291 29.1093 8.76064
2684 895 2 0.4238 15.1718 28.279 8.76318
2872 958 1 -0.8476 12.8355 27.0688 15.7836
2873 958 2 0.4238 13.067 26.7945 16.717
2874 958 2 0.4238 11.8633 26.9027 15.6188
2928 976 2 0.4238 9.65863 28.4835 9.16687
2944 982 1 -0.8476 12.7292 27.8177 10.8744
2945 982 2 0.4238 13.1717 28.2156 11.678
2946 982 2 0.4238 11.7648 28.0818 10.8599
3032 1011 2 0.4238 16.652 26.0827 13.9941
3109 1037 1 -0.8476 15.0707 26.5912 13.8605
3110 1037 2 0.4238 15.1555 27.4009 13.2799
3111 1037 2 0.4238 14.2594 26.679 14.4385
3146 1058 3 2 15.0949 32.6838 10.6894
3276 1078 7 -0.562 10.9298 32.9199 9.80582
1 1 1 -0.8476 23.7709 26.5587 11.1789
2 1 2 0.4238 24.5412 27.184 11.054
3 1 2 0.4238 23.0923 26.7184 10.462
43 15 1 -0.8476 19.8448 27.245 9.41636
44 15 2 0.4238 20.0628 27.6492 10.3047
45 15 2 0.4238 19.0577 27.7171 9.0195
85 29 1 -0.8476 18.7671 32.508 14.4753
86 29 2 0.4238 17.7895 32.3516 14.6163
87 29 2 0.4238 19.143 32.9982 15.2617
274 92 1 -0.8476 20.4052 32.3618 11.928
275 92 2 0.4238 19.7814 31.6124 11.7057
276 92 2 0.4238 20.8366 32.696 11.09
565 189 1 -0.8476 23.7143 25.8036 13.9206
566 189 2 0.4238 23.8468 26.7877 14.0387
567 189 2 0.4238 23.6407 25.3672 14.8173
574 192 1 -0.8476 21.7842 32.8361 14.3895
575 192 2 0.4238 21.057 32.7735 13.706
576 192 2 0.4238 21.7289 32.0521 15.0078
1018 340 1 -0.8476 20.6955 26.0443 16.048
1019 340 2 0.4238 21.5945 25.8144 16.4207
1020 340 2 0.4238 20.4936 27.0059 16.2338
1159 387 1 -0.8476 23.1706 29.5539 11.8201
1160 387 2 0.4238 23.5324 30.4294 12.1405
1161 387 2 0.4238 23.0376 29.5906 10.8297
1234 412 1 -0.8476 21.7507 32.4168 9.26311
1235 412 2 0.4238 21.1602 33.1603 8.94919
1236 412 2 0.4238 22.6813 32.5665 8.92899
1243 415 1 -0.8476 18.5517 30.4215 10.5554
1244 415 2 0.4238 19.2995 29.7947 10.7746
1245 415 2 0.4238 18.6146 30.6924 9.59485
1246 416 1 -0.8476 17.6195 26.2038 16.7329
1411 471 1 -0.8476 22.5746 29.8788 8.58124
1413 471 2 0.4238 22.5655 30.8771 8.52359
1414 472 1 -0.8476 20.2838 26.5274 13.3531
1415 472 2 0.4238 19.3126 26.453 13.1267
1416 472 2 0.4238 20.4537 26.0948 14.2385
1456 486 1 -0.8476 21.5579 30.7937 15.9814
1457 486 2 0.4238 21.2517 29.8609 16.1713
1461 487 2 0.4238 17.1898 31.2896 11.3715
1756 586 1 -0.8476 24.2682 31.5954 16.713
1757 586 2 0.4238 23.3759 31.4131 16.3
1758 586 2 0.4238 24.6768 32.3999 16.282
1792 598 1 -0.8476 20.5364 28.6238 11.7384
1793 598 2 0.4238 21.3635 29.1764 11.8406
1794 598 2 0.4238 20.4371 28.0225 12.5313
1861 621 1 -0.8476 24.428 28.4701 14.0645
1863 621 2 0.4238 23.8686 28.6492 13.2552
1939 647 1 -0.8476 17.3493 28.5758 12.5587
1940 647 2 0.4238 17.322 27.669 12.9794
1941 647 2 0.4238 17.4013 28.4806 11.5646
2189 730 2 0.4238 17.7152 25.0405 10.1804
2190 730 2 0.4238 19.1213 25.8494 9.99218
2242 748 1 -0.8476 17.718 29.6909 14.9905
2243 748 2 0.4238 17.724 29.095 14.1875
2244 748 2 0.4238 18.5645 30.2226 15.0172
2269 757 1 -0.8476 22.43 27.3521 9.13757
2270 757 2 0.4238 22.8007 28.2399 8.86479
2271 757 2 0.4238 21.4311 27.3832 9.10298
2301 767 2 0.4238 23.3394 25.6762 8.51833
2377 793 1 -0.8476 24.5289 32.2434 13.0261
2379 793 2 0.4238 23.7609 32.8773 13.1178
2935 979 1 -0.8476 23.4434 25.2938 16.5034
2994 998 2 0.4238 24.5507 28.8374 16.0821
3031 1011 1 -0.8476 17.6422 26.1647 14.1071
3033 1011 2 0.4238 17.8675 26.1668 15.0814
3069 1023 2 0.4238 21.2802 25.4973 12.3547
79 27 1 -0.8476 33.1626 31.2078 9.18034
124 42 1 -0.8476 31.2119 26.6755 13.8141
125 42 2 0.4238 30.7001 27.5197 13.9736
126 42 2 0.4238 31.7391 26.4458 14.6322
226 76 1 -0.8476 26.0002 27.8985 10.7931
227 76 2 0.4238 25.8762 28.8751 10.9691
228 76 2 0.4238 26.2086 27.7581 9.8252
391 131 1 -0.8476 32.7685 26.5602 16.0034
392 131 2 0.4238 32.3472 27.4496 16.1808
393 131 2 0.4238 32.3332 25.8652 16.5757
424 142 1 -0.8476 31.0018 28.9493 11.1548
425 142 2 0.4238 31.4963 28.099 11.3347
426 142 2 0.4238 30.534 29.2454 11.9876
451 151 1 -0.8476 28.7878 33.0183 14.6507
508 170 1 -0.8476 28.4916 27.9733 15.867
509 170 2 0.4238 29.1999 28.5167 15.4163
748 250 1 -0.8476 33.2072 26.6096 9.85616
749 250 2 0.4238 32.9409 25.8978 10.506
1003 335 1 -0.8476 26.0117 33.0553 15.2235
1005 335 2 0.4238 26.9358 32.7079 15.0641
1006 336 1 -0.8476 27.8373 25.9739 14.1748
1007 336 2 0.4238 28.0929 26.4992 14.9864
1008 336 2 0.4238 28.5342 25.28 13.9937
1281 427 2 0.4238 31.9987 26.8443 8.66879
1348 450 1 -0.8476 31.4616 28.8708 16.649
1349 450 2 0.4238 31.7235 29.8325 16.5678
1387 463 1 -0.8476 25.883 31.4864 8.71901
1388 463 2 0.4238 26.6299 32.1507 8.68965
1750 584 1 -0.8476 26.8272 29.9661 14.3564
1751 584 2 0.4238 27.3773 30.3645 13.6225
1752 584 2 0.4238 26.9451 28.9731 14.36
1798 600 1 -0.8476 28.5878 26.4563 9.58206
1799 600 2 0.4238 28.8574 27.1158 10.2837
1800 600 2 0.4238 27.9485 26.8887 8.94619
1860 620 2 0.4238 27.1253 30.5192 15.997
1862 621 2 0.4238 25.1277 29.1795 14.1496
2030 677 2 0.4238 30.4576 25.1488 13.1249
2046 682 2 0.4238 32.9619 31.5344 14.1059
2224 742 1 -0.8476 30.4577 29.6127 8.79
2225 742 2 0.4238 29.8362 30.3889 8.89573
2226 742 2 0.4238 30.7442 29.2898 9.69204
2266 756 1 -0.8476 31.2828 31.859 14.6892
2267 756 2 0.4238 31.7 32.1335 15.5555
2268 756 2 0.4238 30.3968 32.3114 14.5878
2378 793 2 0.4238 25.0833 32.2688 13.858
2500 834 1 -0.8476 30.2125 29.4208 13.8808
2501 834 2 0.4238 29.3668 29.7172 13.437
2502 834 2 0.4238 30.7518 30.2222 14.1394
2605 869 1 -0.8476 28.0183 27.9688 12.4271
2606 869 2 0.4238 27.1396 27.8827 11.9575
2607 869 2 0.4238 28.1437 27.1924 13.0447
2779 927 1 -0.8476 28.8259 31.7688 9.10628
2780 927 2 0.4238 29.5689 32.1107 9.6817
2815 939 1 -0.8476 25.7776 30.5601 11.2464
2816 939 2 0.4238 25.7478 30.968 10.3339
2817 939 2 0.4238 25.2859 31.1467 11.8899
2908 970 1 -0.8476 28.1738 31.1037 12.369
2909 970 2 0.4238 27.4059 30.7607 11.8281
2910 970 2 0.4238 28.2659 32.0896 12.2293
3004 1002 1 -0.8476 25.8259 25.2005 12.4185
3005 1002 2 0.4238 26.3186 25.601 13.1911
3055 1019 1 -0.8476 30.6069 33.1164 10.4232
3056 1019 2 0.4238 31.4469 32.574 10.4372
80 27 2 0.4238 33.8071 31.9118 8.88212
81 27 2 0.4238 33.4081 30.8988 10.0992
109 37 1 -0.8476 40.6078 30.3745 13.9372
110 37 2 0.4238 40.3062 30.2249 14.8788
111 37 2 0.4238 39.8103 30.4293 13.3364
215 72 2 0.4238 39.0608 25.0359 16.4376
325 109 1 -0.8476 36.6433 25.0961 9.90897
326 109 2 0.4238 36.8768 25.033 8.93867
511 171 1 -0.8476 38.9251 31.148 16.7381
513 171 2 0.4238 38.0796 30.8727 16.2806
750 250 2 0.4238 34.098 26.9821 10.1164
923 308 2 0.4238 41.4989 29.0317 13.3489
924 308 2 0.4238 40.8035 27.5716 13.5752
1024 342 1 -0.8476 35.8423 27.5497 10.3049
1025 342 2 0.4238 36.2099 28.081 9.54162
1026 342 2 0.4238 35.9531 26.574 10.1159
1180 394 1 -0.8476 36.7219 30.7069 9.74095
1181 394 2 0.4238 35.8642 30.477 10.2008
1182 394 2 0.4238 36.9245 30.0148 9.04814
1195 399 1 -0.8476 37.082 27.9703 12.7224
1196 399 2 0.4238 36.2007 28.038 13.19
1197 399 2 0.4238 36.9321 27.7446 11.7598
1360 454 1 -0.8476 39.3416 26.516 13.8754
1361 454 2 0.4238 39.0625 25.8166 14.5333
1362 454 2 0.4238 38.5478 27.0668 13.6176
1560 520 2 0.4238 35.6272 31.3694 16.5832
1603 535 1 -0.8476 36.4099 30.515 15.2301
1604 535 2 0.4238 36.6286 31.1516 14.4906
1605 535 2 0.4238 35.7049 29.8761 14.9223
1680 560 2 0.4238 41.2103 32.2444 13.85
1819 607 1 -0.8476 34.6539 28.4265 14.1165
1820 607 2 0.4238 34.1589 27.6653 14.5354
1821 607 2 0.4238 34.1011 29.2576 14.1778
1893 631 2 0.4238 37.2242 32.605 10.0582
1900 634 1 -0.8476 39.6223 30.8507 8.59873
1901 634 2 0.4238 40.1229 31.1041 9.42648
1902 634 2 0.4238 38.6497 31.0464 8.72437
1924 642 1 -0.8476 36.6445 32.3496 13.1073
1925 642 2 0.4238 35.9495 32.5647 12.4212
1926 642 2 0.4238 36.9265 33.1897 13.5707
2044 682 1 -0.8476 33.9099 31.3106 13.8796
2045 682 2 0.4238 34.4305 32.1549 13.7528
2047 683 1 -0.8476 41.0316 31.1626 10.9799
2048 683 2 0.4238 41.0772 32.1599 10.9224
2049 683 2 0.4238 40.1831 30.8934 11.4356
2695 899 1 -0.8476 38.5987 30.5889 12.2862
2696 899 2 0.4238 37.9353 31.3328 12.3673
2697 899 2 0.4238 38.1618 29.7241 12.5338
3103 1035 1 -0.8476 34.4878 29.9458 11.4599
3104 1035 2 0.4238 34.4352 30.4247 12.3362
3105 1035 2 0.4238 34.8152 29.0128 11.6091
36 12 2 0.4238 12.6294 39.9182 16.2209
72 24 2 0.4238 16.4701 37.8042 15.0521
89 30 2 0.4238 14.488 33.88 16.4342
192 64 2 0.4238 15.7735 41.3883 11.5461
466 156 1 -0.8476 10.7672 40.3154 15.1686
467 156 2 0.4238 11.403 40.709 14.5046
468 156 2 0.4238 10.0413 39.8259 14.6854
493 165 1 -0.8476 14.6433 39.8074 11.5393
494 165 2 0.4238 14.464 39.5824 10.5816
495 165 2 0.4238 14.868 38.9723 12.0414
727 243 1 -0.8476 16.102 34.4451 10.6345
728 243 2 0.4238 15.5878 35.3019 10.5971
838 280 1 -0.8476 13.9633 35.7042 16.1117
839 280 2 0.4238 14.3674 35.5027 15.2195
840 280 2 0.4238 12.999 35.9417 15.9949
946 316 1 -0.8476 15.2571 37.0184 11.168
947 316 2 0.4238 14.5151 36.8717 10.5139
948 316 2 0.4238 15.9719 37.5731 10.7423
967 323 1 -0.8476 8.86449 38.8192 13.9835
968 323 2 0.4238 8.89574 37.8459 13.7561
1450 484 1 -0.8476 11.2993 36.5339 15.3063
1451 484 2 0.4238 10.945 35.6312 15.5506
1452 484 2 0.4238 10.6832 37.2396 15.6561
1536 512 2 0.4238 8.52462 36.806 16.2503
1557 519 2 0.4238 11.636 37.9003 9.27939
1679 560 2 0.4238 9.10644 33.3315 13.056
1788 596 2 0.4238 8.50588 41.3749 10.1231
1933 645 1 -0.8476 14.1096 36.1591 8.67113
1935 645 2 0.4238 13.2366 36.6226 8.5192
2155 719 1 -0.8476 10.2849 33.8442 16.4139
2157 719 2 0.4238 10.0203 33.657 15.4679
2203 735 1 -0.8476 13.0095 37.7791 13.7808
2204 735 2 0.4238 12.3811 37.2507 14.3517
2205 735 2 0.4238 13.6831 38.2363 14.3615
2211 737 2 0.4238 9.95681 40.3596 16.7376
2383 795 1 -0.8476 13.614 33.5856 9.57965
2384 795 2 0.4238 13.804 34.3441 8.95632
2385 795 2 0.4238 12.6262 33.4413 9.63768
2431 811 1 -0.8476 15.2749 35.5851 13.6002
2432 811 2 0.4238 15.1276 35.9858 12.6959
2433 811 2 0.4238 15.9841 36.1002 14.0815
2437 813 1 -0.8476 12.7126 41.0811 13.284
2438 813 2 0.4238 12.1346 40.971 12.4754
2439 813 2 0.4238 13.6434 40.7839 13.0713
2587 863 1 -0.8476 11.7923 37.8481 11.4729
2588 863 2 0.4238 11.4639 36.94 11.213
2589 863 2 0.4238 12.1229 37.8256 12.4164
2671 891 1 -0.8476 14.2978 33.4556 12.3854
2673 891 2 0.4238 14.6508 34.1634 12.9973
2731 911 1 -0.8476 14.108 39.7493 8.7378
2732 911 2 0.4238 13.183 39.3865 8.6249
2983 995 1 -0.8476 15.1686 39.1536 14.9115
2984 995 2 0.4238 15.7379 39.9176 14.608
2985 995 2 0.4238 14.7182 39.3945 15.7712
3100 1034 1 -0.8476 11.1289 40.4277 11.0587
3101 1034 2 0.4238 11.5782 39.5505 11.228
3102 1034 2 0.4238 10.1559 40.3513 11.2765
3272 1078 5 0.23 9.24405 34.7166 8.63255