LAMMPS data for solvent_mix_1 converted from GROMACS/ATB topology

3438 atoms
2340 bonds
1476 angles
36 dihedrals
0 impropers

7 atom types
4 bond types
5 angle types
1 dihedral types
0 improper types

0.0 50.00000000 xlo xhi
0.0 50.00000000 ylo yhi
0.0 50.00000000 zlo zhi

Masses

   1    15.999400 # OW
   2     1.008000 # H
   3    65.370000 # ZN2+
   4    18.998400 # F
   5    12.011000 # C
   6    32.060000 # SDmso
   7    15.999400 # OM

Bond Coeffs # harmonic

   1     412.28489484     1.000000
   2     450.61663480     1.340000
   3      56.16640755     1.860000
   4     450.22562141     1.480000

Angle Coeffs # harmonic

   1      45.76959847   109.470000
   2     297.93553231   107.000000
   3      55.20236362   111.000000
   4      47.65138023   103.000000
   5     382.32824821   114.000000

Dihedral Coeffs # harmonic

   1       0.70028681    1    3

Atoms # full

     1      1    1    -0.847600    19.050000    26.110000    11.070000
     2      1    2     0.423800    18.050000    25.890000    11.500000
     3      1    2     0.423800    18.910000    25.300000    10.320000
     4      2    1    -0.847600    16.270000    13.860000    29.420000
     5      2    2     0.423800    16.090000    12.860000    29.870000
     6      2    2     0.423800    16.500000    14.270000    30.420000
     7      3    1    -0.847600     5.860000     5.170000    36.150000
     8      3    2     0.423800     6.470000     4.980000    35.250000
     9      3    2     0.423800     6.760000     5.560000    36.680000
    10      4    1    -0.847600    11.490000    38.740000    46.580000
    11      4    2     0.423800    12.230000    39.170000    45.870000
    12      4    2     0.423800    10.680000    39.310000    46.090000
    13      5    1    -0.847600    32.740000    32.140000     4.720000
    14      5    2     0.423800    33.550000    32.190000     3.970000
    15      5    2     0.423800    32.050000    31.750000     3.950000
    16      6    1    -0.847600    22.040000     9.810000    10.520000
    17      6    2     0.423800    22.650000     8.890000    10.370000
    18      6    2     0.423800    22.970000    10.380000    10.740000
    19      7    1    -0.847600    40.740000    30.310000     3.620000
    20      7    2     0.423800    40.500000    29.930000     2.610000
    21      7    2     0.423800    40.390000    29.350000     4.060000
    22      8    1    -0.847600    46.940000    11.020000     9.450000
    23      8    2     0.423800    46.200000    10.200000     9.340000
    24      8    2     0.423800    46.130000    11.770000     9.350000
    25      9    1    -0.847600    30.700000    35.800000    30.790000
    26      9    2     0.423800    29.880000    36.520000    30.590000
    27      9    2     0.423800    30.140000    35.370000    31.640000
    28     10    1    -0.847600    32.700000    29.500000    37.710000
    29     10    2     0.423800    32.900000    29.430000    38.800000
    30     10    2     0.423800    31.790000    28.880000    37.830000
    31     11    1    -0.847600    35.200000    15.170000    14.760000
    32     11    2     0.423800    36.150000    15.240000    15.330000
    33     11    2     0.423800    34.680000    15.740000    15.560000
    34     12    1    -0.847600     8.680000    42.080000    12.670000
    35     12    2     0.423800     7.770000    41.790000    13.230000
    36     12    2     0.423800     8.930000    41.020000    12.510000
    37     13    1    -0.847600    10.110000    16.210000    23.040000
    38     13    2     0.423800     9.270000    16.790000    23.470000
    39     13    2     0.423800     9.890000    16.630000    22.040000
    40     14    1    -0.847600    24.390000     0.930000    32.230000
    41     14    2     0.423800    23.910000     0.000000    31.850000
    42     14    2     0.423800    23.450000     1.490000    32.030000
    43     15    1    -0.847600    15.710000    29.640000     8.710000
    44     15    2     0.423800    15.850000    29.280000     7.670000
    45     15    2     0.423800    14.620000    29.440000     8.640000
    46     16    1    -0.847600     1.190000    36.620000     5.830000
    47     16    2     0.423800     1.960000    37.420000     5.730000
    48     16    2     0.423800     0.790000    36.890000     4.830000
    49     17    1    -0.847600    19.530000    49.950000    47.570000
    50     17    2     0.423800    19.730000    49.900000    46.480000
    51     17    2     0.423800    20.140000    49.030000    47.720000
    52     18    1    -0.847600    34.250000    17.000000    33.800000
    53     18    2     0.423800    34.130000    15.900000    33.670000
    54     18    2     0.423800    34.590000    16.830000    34.840000
    55     19    1    -0.847600    36.220000    31.510000    11.370000
    56     19    2     0.423800    36.180000    31.400000    10.260000
    57     19    2     0.423800    37.310000    31.330000    11.350000
    58     20    1    -0.847600    29.770000     5.440000    44.860000
    59     20    2     0.423800    29.740000     5.480000    45.970000
    60     20    2     0.423800    30.370000     6.370000    44.840000
    61     21    1    -0.847600     9.990000    48.700000    21.730000
    62     21    2     0.423800     8.950000    48.340000    21.890000
    63     21    2     0.423800     9.620000    49.740000    21.670000
    64     22    1    -0.847600    40.700000     0.680000     6.670000
    65     22    2     0.423800    41.580000     1.340000     6.830000
    66     22    2     0.423800    41.280000     0.090000     5.930000
    67     23    1    -0.847600    32.470000    47.950000    30.700000
    68     23    2     0.423800    31.980000    48.680000    31.380000
    69     23    2     0.423800    33.010000    48.780000    30.200000
    70     24    1    -0.847600    20.970000    44.340000     1.200000
    71     24    2     0.423800    21.340000    44.530000     2.230000
    72     24    2     0.423800    21.900000    43.790000     0.960000
    73     25    1    -0.847600     1.730000     4.560000    22.650000
    74     25    2     0.423800     1.480000     5.260000    21.820000
    75     25    2     0.423800     1.830000     3.730000    21.920000
    76     26    1    -0.847600    21.170000    11.720000     4.570000
    77     26    2     0.423800    21.580000    11.550000     5.580000
    78     26    2     0.423800    22.100000    11.320000     4.120000
    79     27    1    -0.847600     0.330000    24.560000     0.590000
    80     27    2     0.423800     0.030000    23.640000     1.130000
    81     27    2     0.423800     0.050000    25.170000     1.480000
    82     28    1    -0.847600    29.910000    43.360000    43.180000
    83     28    2     0.423800    29.730000    43.490000    44.270000
    84     28    2     0.423800    30.520000    42.450000    43.390000
    85     29    1    -0.847600    25.850000    34.220000     7.280000
    86     29    2     0.423800    26.560000    34.870000     7.830000
    87     29    2     0.423800    25.160000    35.080000     7.140000
    88     30    1    -0.847600    17.980000    40.850000     3.490000
    89     30    2     0.423800    18.410000    41.410000     2.630000
    90     30    2     0.423800    18.690000    41.350000     4.170000
    91     31    1    -0.847600     7.020000     4.070000    21.470000
    92     31    2     0.423800     6.730000     4.340000    22.510000
    93     31    2     0.423800     6.790000     3.010000    21.680000
    94     32    1    -0.847600    36.730000    12.680000    12.020000
    95     32    2     0.423800    36.160000    13.540000    12.440000
    96     32    2     0.423800    36.880000    12.280000    13.040000
    97     33    1    -0.847600    12.670000    44.430000    44.220000
    98     33    2     0.423800    11.690000    43.960000    43.980000
    99     33    2     0.423800    13.190000    43.510000    43.900000
   100     34    1    -0.847600     0.600000    17.020000    47.350000
   101     34    2     0.423800     0.530000    17.240000    48.440000
   102     34    2     0.423800     1.230000    17.930000    47.220000
   103     35    1    -0.847600    33.500000     4.550000    38.480000
   104     35    2     0.423800    33.470000     5.200000    37.580000
   105     35    2     0.423800    32.530000     4.970000    38.820000
   106     36    1    -0.847600    27.300000    45.450000     0.870000
   107     36    2     0.423800    26.850000    44.940000    -0.000000
   108     36    2     0.423800    27.710000    44.480000     1.220000
   109     37    1    -0.847600     1.930000    49.310000    23.240000
   110     37    2     0.423800     0.950000    48.790000    23.220000
   111     37    2     0.423800     1.890000    49.440000    22.130000
   112     38    1    -0.847600    39.990000    27.920000    35.640000
   113     38    2     0.423800    40.000000    28.740000    34.900000
   114     38    2     0.423800    40.840000    28.390000    36.170000
   115     39    1    -0.847600    14.160000    32.780000    15.840000
   116     39    2     0.423800    14.490000    33.670000    15.260000
   117     39    2     0.423800    13.100000    33.040000    15.640000
   118     40    1    -0.847600    27.870000    49.300000     1.000000
   119     40    2     0.423800    28.080000    49.940000     1.880000
   120     40    2     0.423800    26.790000    49.560000     1.070000
   121     41    1    -0.847600     0.160000    18.540000     0.680000
   122     41    2     0.423800     0.130000    19.640000     0.510000
   123     41    2     0.423800     1.240000    18.600000     0.920000
   124     42    1    -0.847600    44.440000    23.730000    13.570000
   125     42    2     0.423800    44.860000    23.770000    14.600000
   126     42    2     0.423800    45.000000    24.650000    13.310000
   127     43    1    -0.847600    34.210000    10.010000     4.570000
   128     43    2     0.423800    35.230000     9.680000     4.860000
   129     43    2     0.423800    34.440000     9.770000     3.510000
   130     44    1    -0.847600    38.420000     5.580000    20.940000
   131     44    2     0.423800    37.970000     5.490000    19.930000
   132     44    2     0.423800    39.180000     4.820000    20.690000
   133     45    1    -0.847600    28.240000    44.330000    29.310000
   134     45    2     0.423800    28.380000    44.360000    28.210000
   135     45    2     0.423800    27.930000    43.270000    29.250000
   136     46    1    -0.847600    19.490000    27.750000     1.960000
   137     46    2     0.423800    20.280000    27.170000     1.440000
   138     46    2     0.423800    19.160000    26.830000     2.490000
   139     47    1    -0.847600    33.000000     9.090000    47.740000
   140     47    2     0.423800    33.510000     9.640000    46.920000
   141     47    2     0.423800    32.160000     8.840000    47.060000
   142     48    1    -0.847600    13.520000    46.210000    46.490000
   143     48    2     0.423800    12.740000    46.710000    47.100000
   144     48    2     0.423800    14.230000    46.270000    47.350000
   145     49    1    -0.847600     0.010000    21.700000    29.830000
   146     49    2     0.423800     0.710000    20.920000    30.200000
   147     49    2     0.423800     0.510000    21.680000    28.840000
   148     50    1    -0.847600     2.040000    13.630000    28.550000
   149     50    2     0.423800     2.000000    13.660000    29.660000
   150     50    2     0.423800     1.430000    14.560000    28.500000
   151     51    1    -0.847600    39.940000     7.230000    36.950000
   152     51    2     0.423800    39.680000     8.110000    37.570000
   153     51    2     0.423800    39.500000     6.560000    37.710000
   154     52    1    -0.847600    37.760000     1.000000    44.300000
   155     52    2     0.423800    38.390000     0.720000    43.420000
   156     52    2     0.423800    38.450000     0.450000    44.970000
   157     53    1    -0.847600    26.670000     9.840000     8.980000
   158     53    2     0.423800    27.100000    10.120000     9.970000
   159     53    2     0.423800    25.980000    10.710000     9.050000
   160     54    1    -0.847600    32.660000    43.690000    16.830000
   161     54    2     0.423800    32.220000    44.070000    15.880000
   162     54    2     0.423800    31.770000    44.060000    17.390000
   163     55    1    -0.847600    39.880000    22.520000    42.740000
   164     55    2     0.423800    39.100000    22.130000    43.420000
   165     55    2     0.423800    39.860000    21.570000    42.170000
   166     56    1    -0.847600    32.690000    10.900000    36.370000
   167     56    2     0.423800    33.210000    11.710000    36.920000
   168     56    2     0.423800    33.650000    10.610000    35.900000
   169     57    1    -0.847600    33.410000    21.430000    20.420000
   170     57    2     0.423800    33.190000    21.300000    21.500000
   171     57    2     0.423800    34.280000    20.760000    20.510000
   172     58    1    -0.847600    26.480000    38.470000     7.390000
   173     58    2     0.423800    27.010000    37.690000     7.970000
   174     58    2     0.423800    26.690000    37.920000     6.450000
   175     59    1    -0.847600    19.470000    24.940000    27.950000
   176     59    2     0.423800    19.560000    24.870000    26.840000
   177     59    2     0.423800    18.830000    25.850000    27.830000
   178     60    1    -0.847600     8.660000     6.420000    47.700000
   179     60    2     0.423800     8.060000     6.890000    48.500000
   180     60    2     0.423800     7.990000     5.530000    47.710000
   181     61    1    -0.847600     2.640000    24.190000    25.330000
   182     61    2     0.423800     1.650000    23.730000    25.510000
   183     61    2     0.423800     3.140000    23.240000    25.620000
   184     62    1    -0.847600    25.280000     8.330000    13.060000
   185     62    2     0.423800    24.840000     8.140000    14.060000
   186     62    2     0.423800    25.730000     9.270000    13.440000
   187     63    1    -0.847600    14.510000    33.200000     2.440000
   188     63    2     0.423800    14.230000    33.120000     1.370000
   189     63    2     0.423800    13.980000    32.250000     2.650000
   190     64    1    -0.847600    13.410000    42.260000    19.500000
   191     64    2     0.423800    13.260000    42.160000    20.600000
   192     64    2     0.423800    14.440000    42.630000    19.670000
   193     65    1    -0.847600    24.390000    22.050000    37.920000
   194     65    2     0.423800    23.680000    22.280000    38.750000
   195     65    2     0.423800    25.000000    21.440000    38.610000
   196     66    1    -0.847600    49.010000    48.370000    26.450000
   197     66    2     0.423800    48.930000    48.440000    27.560000
   198     66    2     0.423800    48.680000    49.420000    26.360000
   199     67    1    -0.847600    39.280000    22.870000     0.960000
   200     67    2     0.423800    39.210000    23.100000     2.040000
   201     67    2     0.423800    38.790000    23.830000     0.710000
   202     68    1    -0.847600    31.930000    11.100000    28.410000
   203     68    2     0.423800    31.210000    11.560000    29.110000
   204     68    2     0.423800    32.520000    10.720000    29.270000
   205     69    1    -0.847600    27.380000    31.650000    18.740000
   206     69    2     0.423800    26.710000    30.860000    19.130000
   207     69    2     0.423800    27.420000    31.140000    17.760000
   208     70    1    -0.847600     2.290000    35.790000    17.390000
   209     70    2     0.423800     1.350000    35.260000    17.120000
   210     70    2     0.423800     2.480000    35.030000    18.180000
   211     71    1    -0.847600    47.940000     9.990000    22.170000
   212     71    2     0.423800    48.960000    10.140000    21.760000
   213     71    2     0.423800    48.260000     9.020000    22.600000
   214     72    1    -0.847600    47.900000    38.010000    16.640000
   215     72    2     0.423800    47.890000    38.000000    17.750000
   216     72    2     0.423800    47.980000    39.120000    16.650000
   217     73    1    -0.847600    40.650000    16.500000    12.770000
   218     73    2     0.423800    39.720000    15.990000    12.440000
   219     73    2     0.423800    40.450000    16.200000    13.820000
   220     74    1    -0.847600    24.150000     1.380000    47.030000
   221     74    2     0.423800    24.140000     0.820000    47.990000
   222     74    2     0.423800    23.060000     1.210000    46.920000
   223     75    1    -0.847600    31.710000    23.430000    38.290000
   224     75    2     0.423800    32.180000    22.630000    38.890000
   225     75    2     0.423800    31.890000    22.840000    37.370000
   226     76    1    -0.847600    27.160000    31.360000    42.260000
   227     76    2     0.423800    27.180000    31.380000    43.370000
   228     76    2     0.423800    28.130000    31.900000    42.230000
   229     77    1    -0.847600    41.430000    19.780000    40.780000
   230     77    2     0.423800    41.500000    18.700000    40.550000
   231     77    2     0.423800    42.340000    19.980000    40.180000
   232     78    1    -0.847600     7.470000    37.060000    43.220000
   233     78    2     0.423800     7.850000    37.100000    44.270000
   234     78    2     0.423800     7.400000    35.950000    43.290000
   235     79    1    -0.847600    32.240000    26.810000    34.610000
   236     79    2     0.423800    32.510000    27.190000    35.620000
   237     79    2     0.423800    33.280000    26.480000    34.450000
   238     80    1    -0.847600     7.660000    46.780000    30.880000
   239     80    2     0.423800     7.850000    46.550000    29.810000
   240     80    2     0.423800     7.850000    45.710000    31.140000
   241     81    1    -0.847600    10.910000    29.010000    28.330000
   242     81    2     0.423800    11.660000    28.230000    28.070000
   243     81    2     0.423800    11.540000    29.780000    27.830000
   244     82    1    -0.847600    10.230000    14.480000    48.010000
   245     82    2     0.423800    10.330000    14.540000    46.910000
   246     82    2     0.423800     9.400000    13.750000    47.900000
   247     83    1    -0.847600    17.000000    41.240000    21.510000
   248     83    2     0.423800    16.250000    40.430000    21.640000
   249     83    2     0.423800    17.520000    40.630000    20.740000
   250     84    1    -0.847600    23.700000    29.810000     3.090000
   251     84    2     0.423800    24.410000    29.790000     3.940000
   252     84    2     0.423800    24.440000    29.300000     2.450000
   253     85    1    -0.847600     6.040000    45.420000     5.810000
   254     85    2     0.423800     6.450000    44.740000     5.030000
   255     85    2     0.423800     5.200000    45.690000     5.130000
   256     86    1    -0.847600    26.870000     5.020000    36.120000
   257     86    2     0.423800    26.340000     5.080000    35.150000
   258     86    2     0.423800    25.960000     5.380000    36.640000
   259     87    1    -0.847600    45.250000     3.690000    26.140000
   260     87    2     0.423800    45.230000     3.740000    27.250000
   261     87    2     0.423800    45.730000     2.690000    26.190000
   262     88    1    -0.847600     1.570000    23.860000    42.430000
   263     88    2     0.423800     1.230000    22.930000    41.930000
   264     88    2     0.423800     2.070000    23.260000    43.220000
   265     89    1    -0.847600    21.180000    13.290000    47.490000
   266     89    2     0.423800    20.150000    13.690000    47.500000
   267     89    2     0.423800    21.020000    12.910000    46.460000
   268     90    1    -0.847600    45.310000    16.670000    27.200000
   269     90    2     0.423800    45.570000    16.690000    26.120000
   270     90    2     0.423800    45.760000    15.660000    27.300000
   271     91    1    -0.847600    10.790000     3.090000     5.950000
   272     91    2     0.423800     9.940000     3.260000     6.640000
   273     91    2     0.423800    11.010000     4.180000     5.960000
   274     92    1    -0.847600    25.440000    41.410000    45.110000
   275     92    2     0.423800    25.030000    40.520000    45.620000
   276     92    2     0.423800    25.310000    42.010000    46.040000
   277     93    1    -0.847600    39.180000    19.910000     3.380000
   278     93    2     0.423800    40.190000    19.510000     3.600000
   279     93    2     0.423800    39.090000    20.270000     4.430000
   280     94    1    -0.847600    21.110000    38.040000     1.690000
   281     94    2     0.423800    21.200000    38.090000     2.800000
   282     94    2     0.423800    20.900000    36.950000     1.750000
   283     95    1    -0.847600     6.290000    14.030000     6.230000
   284     95    2     0.423800     6.240000    13.850000     5.140000
   285     95    2     0.423800     5.340000    14.600000     6.180000
   286     96    1    -0.847600     0.470000     3.460000    34.390000
   287     96    2     0.423800     1.090000     3.200000    35.270000
   288     96    2     0.423800     0.360000     4.500000    34.760000
   289     97    1    -0.847600    19.140000    19.110000     4.350000
   290     97    2     0.423800    19.310000    18.330000     3.590000
   291     97    2     0.423800    20.180000    19.470000     4.230000
   292     98    1    -0.847600    33.350000    36.520000    15.170000
   293     98    2     0.423800    33.220000    37.090000    16.110000
   294     98    2     0.423800    34.460000    36.590000    15.270000
   295     99    1    -0.847600     0.290000    29.430000     8.630000
   296     99    2     0.423800     0.950000    29.230000     7.750000
   297     99    2     0.423800     0.080000    28.340000     8.710000
   298    100    1    -0.847600    32.140000    12.900000    44.680000
   299    100    2     0.423800    32.180000    12.880000    43.570000
   300    100    2     0.423800    33.250000    12.820000    44.710000
   301    101    1    -0.847600     0.450000    10.030000    32.200000
   302    101    2     0.423800     1.440000     9.830000    31.750000
   303    101    2     0.423800     0.920000    10.110000    33.200000
   304    102    1    -0.847600    16.740000    48.990000    42.550000
   305    102    2     0.423800    16.180000    48.730000    41.630000
   306    102    2     0.423800    17.340000    49.730000    41.980000
   307    103    1    -0.847600    19.300000    47.330000     9.190000
   308    103    2     0.423800    19.290000    46.780000    10.160000
   309    103    2     0.423800    20.360000    47.600000     9.350000
   310    104    1    -0.847600    26.240000    20.830000    12.000000
   311    104    2     0.423800    27.110000    21.100000    11.370000
   312    104    2     0.423800    26.590000    21.530000    12.790000
   313    105    1    -0.847600     7.380000    11.830000    39.980000
   314    105    2     0.423800     7.380000    12.670000    39.250000
   315    105    2     0.423800     6.950000    12.500000    40.750000
   316    106    1    -0.847600    20.110000     6.010000    27.740000
   317    106    2     0.423800    20.820000     5.150000    27.750000
   318    106    2     0.423800    19.880000     5.840000    28.810000
   319    107    1    -0.847600     4.730000     9.930000    12.370000
   320    107    2     0.423800     4.590000     9.990000    11.270000
   321    107    2     0.423800     4.760000    11.030000    12.430000
   322    108    1    -0.847600    30.600000     0.310000     4.370000
   323    108    2     0.423800    29.900000     0.890000     3.740000
   324    108    2     0.423800    30.080000     0.680000     5.280000
   325    109    1    -0.847600    39.230000    10.890000     2.170000
   326    109    2     0.423800    39.850000    11.070000     3.080000
   327    109    2     0.423800    38.450000    10.420000     2.800000
   328    110    1    -0.847600    15.660000    22.860000    21.970000
   329    110    2     0.423800    15.940000    22.090000    21.220000
   330    110    2     0.423800    14.620000    22.460000    21.990000
   331    111    1    -0.847600    27.660000     8.090000    38.530000
   332    111    2     0.423800    27.880000     7.100000    38.070000
   333    111    2     0.423800    26.810000     8.220000    37.820000
   334    112    1    -0.847600    37.230000    16.810000    11.170000
   335    112    2     0.423800    37.330000    16.820000    10.060000
   336    112    2     0.423800    36.680000    17.770000    11.130000
   337    113    1    -0.847600    31.430000     1.530000    11.290000
   338    113    2     0.423800    32.450000     1.780000    11.660000
   339    113    2     0.423800    31.330000     0.780000    12.100000
   340    114    1    -0.847600    44.040000    41.830000     6.400000
   341    114    2     0.423800    44.050000    41.940000     5.300000
   342    114    2     0.423800    44.570000    42.790000     6.510000
   343    115    1    -0.847600    27.790000    48.260000    23.500000
   344    115    2     0.423800    26.950000    48.210000    22.770000
   345    115    2     0.423800    27.140000    47.830000    24.280000
   346    116    1    -0.847600    45.000000    41.380000    19.470000
   347    116    2     0.423800    44.520000    41.790000    18.560000
   348    116    2     0.423800    44.010000    41.040000    19.840000
   349    117    1    -0.847600    44.980000     6.320000    16.560000
   350    117    2     0.423800    45.000000     6.340000    15.450000
   351    117    2     0.423800    44.100000     6.990000    16.560000
   352    118    1    -0.847600    22.990000    23.960000    48.760000
   353    118    2     0.423800    22.540000    23.100000    48.220000
   354    118    2     0.423800    22.640000    24.650000    47.970000
   355    119    1    -0.847600    41.650000    28.730000    16.700000
   356    119    2     0.423800    42.560000    29.350000    16.560000
   357    119    2     0.423800    42.270000    27.810000    16.610000
   358    120    1    -0.847600     3.690000     7.530000    35.100000
   359    120    2     0.423800     3.910000     7.300000    36.170000
   360    120    2     0.423800     3.660000     6.450000    34.870000
   361    121    1    -0.847600    20.270000    25.520000    17.000000
   362    121    2     0.423800    21.010000    25.080000    17.700000
   363    121    2     0.423800    20.660000    24.870000    16.180000
   364    122    1    -0.847600    25.950000    45.000000    32.210000
   365    122    2     0.423800    26.360000    44.740000    33.210000
   366    122    2     0.423800    26.990000    45.140000    31.830000
   367    123    1    -0.847600    24.730000     0.830000    21.050000
   368    123    2     0.423800    23.960000     1.530000    20.650000
   369    123    2     0.423800    23.920000     0.130000    21.340000
   370    124    1    -0.847600    21.230000     0.580000    30.000000
   371    124    2     0.423800    21.400000     1.160000    29.060000
   372    124    2     0.423800    20.140000     0.750000    29.900000
   373    125    1    -0.847600    37.280000    19.040000    19.540000
   374    125    2     0.423800    37.600000    18.100000    20.040000
   375    125    2     0.423800    37.790000    18.710000    18.610000
   376    126    1    -0.847600     7.690000    11.960000    12.060000
   377    126    2     0.423800     7.070000    12.460000    11.290000
   378    126    2     0.423800     8.610000    12.300000    11.540000
   379    127    1    -0.847600    24.420000    26.910000    33.880000
   380    127    2     0.423800    24.190000    27.670000    34.650000
   381    127    2     0.423800    25.210000    27.560000    33.460000
   382    128    1    -0.847600    35.420000    25.040000    20.740000
   383    128    2     0.423800    34.890000    24.950000    21.720000
   384    128    2     0.423800    35.880000    24.050000    20.900000
   385    129    1    -0.847600     9.350000    32.170000    11.020000
   386    129    2     0.423800     8.340000    31.740000    11.070000
   387    129    2     0.423800     8.920000    33.200000    11.030000
   388    130    1    -0.847600    44.230000    33.980000    22.270000
   389    130    2     0.423800    43.920000    34.310000    23.290000
   390    130    2     0.423800    44.500000    35.030000    22.010000
   391    131    1    -0.847600    28.870000    27.720000    10.840000
   392    131    2     0.423800    29.130000    27.300000     9.840000
   393    131    2     0.423800    27.800000    27.600000    10.610000
   394    132    1    -0.847600    48.710000     2.720000    31.940000
   395    132    2     0.423800    48.320000     1.720000    31.660000
   396    132    2     0.423800    49.060000     2.310000    32.910000
   397    133    1    -0.847600     6.230000    21.190000    37.180000
   398    133    2     0.423800     5.180000    20.820000    37.220000
   399    133    2     0.423800     5.950000    22.050000    37.830000
   400    134    1    -0.847600    40.750000    38.350000     4.020000
   401    134    2     0.423800    41.020000    37.790000     4.940000
   402    134    2     0.423800    41.100000    39.290000     4.490000
   403    135    1    -0.847600    37.080000    37.200000     1.290000
   404    135    2     0.423800    37.360000    37.230000     0.210000
   405    135    2     0.423800    36.150000    36.630000     1.030000
   406    136    1    -0.847600     9.590000    42.170000    19.820000
   407    136    2     0.423800     9.520000    42.210000    18.710000
   408    136    2     0.423800    10.420000    42.900000    19.790000
   409    137    1    -0.847600    21.830000     9.030000    28.830000
   410    137    2     0.423800    21.360000     8.460000    28.000000