3438
final NPT frame step 200000
O      26.79840     24.89600      9.71567
H      27.27230     25.33250     10.48050
H      26.16440     25.54840      9.30037
O      15.80800     37.97160     21.31360
H      16.29400     37.13750     21.57430
H      15.88030     38.10430     20.32510
O      16.37950     26.41200     28.36480
H      16.38740     25.87740     29.20990
H      16.47980     27.38260     28.58340
O       9.80649     40.15140     10.23720
H       8.86522     40.38470      9.99306
H      10.26370     40.95860     10.61070
O      32.66520     33.43640     30.15580
H      32.37680     32.93850     30.97380
H      33.29950     34.16460     30.41530
O      19.64620     21.96690     41.46150
H      18.89590     21.30910      8.53920
H      20.50910     21.51060     41.67880
O      31.90350     28.92100     19.61720
H      32.83070     29.12170     19.93370
H      31.59160     28.06180     20.02280
O      20.91330     39.61780     17.80000
H      20.43030     38.83870     18.19960
H      20.85170     40.40110     18.41850
O      39.78770     39.32780     29.17520
H      40.41230     39.34100     28.39430
H      38.84910     39.21410     28.84940
O      22.50560     33.89650      9.80209
H      22.17120     33.51730     10.66490
H      23.39540     33.49550      9.58424
O      33.07410     14.59620     21.90110
H      33.58540     13.75520     22.07800
H      32.60170     14.88080     22.73520
O      38.86520     32.51960     17.84340
H      38.33510     33.04130     17.17500
H      38.34170     31.71780     18.13150
O      28.51230     19.27190     17.35530
H      28.52400     18.52160     18.01630
H      29.15100     19.98370     17.64770
O      27.43770     19.34650     30.51300
H      27.86240     20.24490     30.40090
H      28.14890     18.64500     30.55880
O      17.12300     20.29490     18.64120
H      17.01710     21.28390     18.53770
H      17.08660     20.05560     19.61150
O      34.88060     15.99890     14.95360
H      34.34610     16.13160     15.78820
H      34.50500     15.23000     14.43600
O      17.00480     14.04140     36.31700
H      17.98240     14.10290     36.51840
H      16.59570     13.31520     36.86940
O      38.16180     20.73670     25.13230
H      37.64350     21.43800     24.64300
H      39.14080     20.91250     25.02850
O      22.85700     30.46510     10.55940
H      23.13570     30.76040      9.64557
H      21.86260     30.36360     10.58810
O      24.10030     14.54650     34.91590
H      24.66710     14.02560     34.27760
H      23.35450     14.98710     34.41630
O      29.16710     17.05650     18.81570
H      29.98690     17.62070     18.91300
H      29.37880     16.11360     19.07310
O      30.15570      9.75236     27.06460
H      29.29100     10.18290     26.80610
H      30.23320      8.86316     26.61370
O      25.12330      9.66955     33.95140
H      24.64630      9.26769     33.16970
H      26.01540     10.01250     33.65710
O      21.21320     31.44930     14.57900
H      20.68300     31.66410     15.39920
H      22.10600     31.08580     14.84490
O      35.10840     20.46560     28.61190
H      35.26730     20.49530     29.59880
H      35.32200     21.35740     28.21300
O      28.97100     16.81990     38.23330
H      28.70720     16.81490     37.26880
H      28.63870     17.65820     38.66550
O      31.30120     36.36350     40.71120
H      31.70900     36.63700     41.58230
H      30.50630     36.93930     40.51990
O      41.50820     17.69550      9.11667
H       8.77715     17.59300     10.07800
H      40.59860     18.10650      9.05574
O      28.41430     35.29340     20.64360
H      27.81400     34.49700     20.57060
H      27.89520     36.12230     20.43500
O      20.02630     38.46380     39.54390
H      20.39790     39.37350     39.72880
H      19.55030     38.12670     40.35620
O      10.24340     13.02100     22.94870
H       9.97639     12.27110     22.34340
H      11.23150     13.16270     22.88780
O      32.45390     17.63150     24.93820
H      32.22600     16.74110     24.54420
H      31.75420     17.89030     25.60410
O      34.77650     41.24790     35.37360
H      34.64010      9.01325     36.01840
H      35.73270     41.22850     35.08160
O      13.02880      9.84167     36.07200
H      12.03000      9.80302     36.04130
H      13.36390      9.23451     36.79250
O      32.38230     12.75620     26.35090
H      33.23960     12.54280     26.81930
H      32.07620     11.95610     25.83510
O      12.08280     14.17900     39.38500
H      13.02240     14.04700     39.06920
H      11.54180     13.36570     39.17090
O      16.23470     29.16440     25.74640
H      16.85850     29.60650     25.10180
H      16.57950     29.28190     26.67770
O      35.55810     29.48080     29.80850
H      34.57890     29.53330     30.00430
H      35.87840     28.54550     29.95910
O      17.02320     25.85620     22.30580
H      16.79320     25.42980     23.18070
H      17.89690     25.49600     21.97900
O      30.11780     40.11160      9.89175
H      29.50490     40.14550     10.68120
H      30.88570     40.73500     10.03890
O      41.46260     26.98510     32.16160
H       8.81333     26.94510     33.10210
H      40.88260     26.19060     31.98160
O      36.99440     31.22280     15.33650
H      36.84650     32.16990     15.62110
H      37.25740     31.20180     14.37190
O      11.52020     10.08400     15.27980
H      11.38790      9.10046     15.40290
H      12.13260     10.24360     14.50550
O      37.34350     39.78100     18.91080
H      37.10750     39.31270     18.05940
H      37.63690     40.71510     18.70710
O      29.74560     38.08530     29.76700
H      28.76020     37.91760     29.73840
H      30.18090     37.64900     28.97940
O      18.74390     31.64770     38.32310
H      18.44300     32.57080     38.56270
H      18.05040     31.20900     37.75170
O      28.49430     31.09870     27.46440
H      28.33270     31.34380     26.50840
H      29.21980     30.41230     27.51440
O      18.44780     13.39800     13.47620
H      18.93520     13.90970     12.76870
H      17.46770     13.58440     13.40690
O      13.53080     16.07230     23.41630
H      13.46060     15.08560     23.56330
H      13.50250     16.54340     24.29790
O      22.56080     18.61410     23.86930
H      21.88540     19.00030     23.24100
H      22.16770     18.55670     24.78700
O      36.65820     18.94030     23.19980
H      37.20680     19.49090     23.82900
H      37.26230     18.37620     22.63680
O      13.53710     39.21460     32.59700
H      14.48240     39.22050     32.92320
H      13.15500     40.13620     32.66580
O      21.40450     25.74420     12.32050
H      22.15170     25.75810     11.65610
H      21.77240     25.88980     13.23890
O      20.92830     33.80420     30.70110
H      20.83700     34.54080     31.37130
H      20.42300     34.04330     29.87200
O      38.11750     29.69730      9.43481
H      37.51290     30.38620      9.83465
H      37.57060     28.93710      9.08402
O      34.02910     17.15490      9.20731
H      33.43300     16.91990      9.97501
H      33.56080     16.95190     41.33410
O      23.42500     17.67140     16.58260
H      23.97520     16.83780     16.53420
H      23.98250     18.41810     16.94540
O      18.74460     32.21660     13.91650
H      19.63510     31.76340     13.95600
H      18.46030     32.47390     14.84010
O      30.50610     11.59890      8.79120
H      31.20610     11.21010      9.39026
H      30.92760     11.89320     40.92020
O      16.46900     24.63530     24.61620
H      16.01300     23.76450     24.43270
H      16.87940     24.61110     25.52780
O      26.49890     34.20760     24.65440
H      25.62630     34.36800     25.11590
H      26.36620     34.25640     23.66440
O      33.69400     16.82470     20.11510
H      33.55800     17.70510     20.56950
H      33.19070     16.11440     20.60700
O      15.82060     31.65320     39.56740
H      16.35010     30.81800     39.41880
H      16.41130     32.44970     39.43880
O      21.58180     10.38440     40.28980
H      22.47550     10.80930     40.43330
H      20.86350     11.06900     40.41370
O      18.95860     30.44830     40.86470
H      18.42690     29.63590     40.62530
H      19.42290     30.79490     40.04970
O      22.79700     36.18070     33.00810
H      21.96830     36.54720     33.43110
H      23.59170     36.42910     33.56190
O      33.31210     11.53200     40.07320
H      33.30820     10.53550     40.15770
H      34.12310     11.90170     40.52650
O      17.83590     32.72900      9.14477
H      18.32420     31.91380      8.83330
H      18.28840     33.54570     41.77360
O      25.43300     19.15780     18.03600
H      26.39310     19.31130     17.80230
H      25.16030     19.79270     18.75890
O      37.70030     26.43630     27.18790
H      37.15770     25.86690     26.57040
H      37.37110     26.31930     28.12490
O      40.63610     15.05570     25.14080
H      39.88980     14.62270     25.64630
H      40.37820     15.99220     24.90300
O      29.40700     22.38720     15.14230
H      28.55970     22.03760     14.74250
H      29.19470     23.13280     15.77390
O      35.41920     24.74110     10.29300
H      35.16080     24.31880      9.42416
H      34.97560     25.63360     10.37480
O      11.25000     24.17880     34.18260
H      11.46900     23.69760     35.03140
H      10.44000     23.76680     33.76530
O      22.35070     26.60200     21.47110
H      21.55720     26.33570     22.01830
H      23.16100     26.64090     22.05590
O      35.91410     33.92040     17.37610
H      35.64100     34.88210     17.35310
H      35.23820     33.39410     17.89190
O      15.89470     32.40380     13.97010
H      16.86690     32.25760     13.78700
H      15.58160     31.74480     14.65410
O      21.83720     20.39040      9.08746
H      21.18960     19.66320      8.85990
H      22.61490     20.35260     41.44670
O      27.69860     27.44870     24.23000
H      26.81730     27.01030     24.05350
H      28.03320     27.87470     23.38950
O      14.41320     35.92140     29.82480
H      13.91880     36.73750     30.12380
H      14.75680     35.42830     30.62400
O      11.72270     23.67170     26.01660
H      11.09560     22.94440     26.29550
H      12.50930     23.27140     25.54640
O      12.51890     22.93780     31.92150
H      12.14670     23.58140     32.59020
H      12.87080     22.13070     32.39560
O      16.83360     38.21720     23.90650
H      16.45220     38.23130     22.98220
H      17.82180     38.36320     23.86150
O      27.95910     35.52120     12.69920
H      27.20330     35.81710     13.28330
H      28.79920     35.47370     13.23970
O      24.62210     24.73390     16.78280
H      24.30670     25.13560     17.64250
H      24.83830     23.76800     16.92580
O      29.85240     23.67390     25.73450
H      30.12550     24.51140     26.20790
H      30.54950     22.97040     25.87300
O      27.70550     16.48200     23.69710
H      28.19900     17.35160     23.67930
H      27.64930     16.14990     24.63860
O      38.49380     21.80250     40.01590
H      37.75080     22.47140     39.99310
H      39.33930     22.25320     40.30250
O      25.96140     12.48490     39.97210
H      25.77170     11.50620     39.89390
H      25.73740     12.79510     40.89600
O      30.26790     32.08690     17.59160
H      31.18160     32.01410     17.99150
H      29.81890     31.19390     17.62140
O      14.50570      9.34509     19.42610
H      14.27330     10.22250     19.00630
H      15.34840      8.99338     19.01860
O      14.74580     39.76050     11.76960
H      13.97120     39.67820     12.39670
H      15.59970     39.65340     12.27890
O      38.27460     20.57770     15.95270
H      37.50570     21.21040     15.86030
H      39.04280     21.04790     16.38710
O      32.07430     21.84700     15.18730
H      32.58710     22.22200     14.41500
H      31.11750     22.13020     15.12110
O      35.85580     40.67370     20.92460
H      36.40560     40.36570     20.14810
H      34.92240     40.32750     20.83030
O      17.64800     35.70370     25.64390
H      18.21010     36.52410     25.53940
H      17.49680     35.28690     24.74750
O      23.57460     34.59800     24.25520
H      23.50800     33.67600     24.63670
H      22.67540     35.03480     24.28030
O      32.34070     28.51130     14.01440
H      33.16790     28.93050     13.64030
H      31.67960     28.36420     13.27860
O      39.19480     38.13320      8.53051
H      39.16100     39.12830      8.62367
H      38.41180     37.72750      9.00194
O      29.96260     25.64600     21.89700
H      29.05020     25.37660     21.58900
H      29.88800     26.42660     22.51750
O      25.02340     23.90550     30.40590
H      25.95060     24.12580     30.10320
H      24.93250     22.91480     30.50780
O      40.54990     15.03830     33.28960
H      40.56290     15.30990     34.25200
H      41.32200     15.45960     32.81390
O      35.18740     28.14920     17.41780
H      34.68090     28.77950     16.82930
H      34.80930     28.18050     18.34300
O      18.92970     33.62360     23.42940
H      19.18470     32.86910     22.82470
H      19.27000     34.48410     23.05040
O      39.99370     25.05700     38.87480
H      40.53660     24.83650     38.06450
H      39.95970     24.26150     39.47980
O      19.54990     14.80560     36.59770
H      20.01870     15.67910     36.46630
H      20.15550     14.05800     36.32510
O      37.06990     27.85160     40.74780
H      36.07550     27.91160     40.66060
H      37.31160     27.01400      8.25097
O      29.38850     18.82380     23.44470
H      29.74670     19.25750     24.27150
H      29.62930     19.37700     22.64720
O      35.73750     33.67090     33.63300
H      34.82580     33.27280     33.73500
H      36.42590     32.94860     33.69960
O      19.47680     11.28620     19.19630
H      19.01620     12.08560     19.58180
H      18.96790     10.96010     18.39960
O      35.55240     10.72330     16.03400
H      35.75100     11.68220     15.83140
H      36.06780     10.43980     16.84270
O      37.32920     11.70210     31.83620
H      37.85800     12.46570     31.46580
H      37.88380     11.20520     32.50360
O      17.40580     14.14730     33.51450
H      16.53210     14.24240     33.03750
H      17.24170     13.84550     34.45370
O      28.20310     31.26700     39.07770
H      28.51340     31.53080     39.99100
H      27.20530     31.20070     39.07080
O      31.18950     36.67100     31.73280
H      31.96530     36.38360     32.29440
H      30.94230     35.93400     31.10360
O      32.83540     36.62600     26.38200
H      33.76320     36.77250     26.72500
H      32.61890     37.32280     25.69820
O      12.72360     40.48760     18.31700
H      12.76630     39.58290     18.74100
H      13.45670     41.06160     18.68170
O      30.09930     18.51070     30.38370
H      30.77830     19.11190     30.80490
H      30.55800     17.86840     29.76970
O      37.05420     22.92540     19.21320
H      36.41520     23.62470     18.89270
H      37.95570     23.33570     19.35100
O      40.72430     21.52940     16.57010
H      41.46160     20.87030     16.71810
H      41.09850     22.45670     16.58360
O      23.35230     38.82170     16.79290
H      22.47990     39.21640     17.08140
H      23.49960     37.95480     17.26900
O      23.70190     12.65990     30.76480
H      24.24750     13.37200     31.20660
H      24.11210     11.76580     30.94490
O      13.94850     40.89140     37.91330
H      14.85340     40.65130     37.56190
H      13.60180     40.14380     38.47980
O      15.91560     17.03150     33.07600
H      15.52600     16.11920     32.95000
H      15.69400     17.60080     32.28420
O      33.34780     19.02160     13.55060
H      32.35830     19.14300     13.47200
H      33.61800     19.10000     14.51020
O      16.82840     35.59750     21.77880
H      17.80820     35.61620     21.58000
H      16.61180     34.77910     22.31110
O      28.49050     23.33850     18.45260
H      28.40660     24.03470     17.73960
H      28.57270     23.78310     19.34450
O      31.32680     12.73810     12.13900
H      30.99970     12.53010     13.06080
H      30.85400     13.54830     11.79240
O      12.96660     14.15630     29.65570
H      13.46450     13.34950     29.97380
H      12.16610     13.86810     29.13020
O      34.23840     12.07620     22.91050
H      33.52020     11.55220     23.36840
H      34.72090     11.48570     22.26360
O      31.90880     33.39350     10.41410
H      32.23030     33.40400      9.46725
H      32.57610     32.91820     10.98750
O      14.84240     14.40760     32.36520
H      14.05790     14.42410     32.98510
H      14.86930     13.53090     31.88490
O      39.05540     18.35270     32.31250
H      38.82810     18.42160     31.34110
H      38.44470     18.94290     32.84040
O      30.71150     40.28750     14.51080
H      31.15100     41.12060     14.84660
H      31.41110     39.64160     14.20520
O      30.45690     38.63820     16.93820
H      30.88220     37.81700     16.55780
H      30.46790     39.36690     16.25350
O      38.15740     25.82030      9.23798
H      39.12700     25.67740      9.03919
H      37.61010     25.16740     41.70120
O      33.50340     10.72650     30.21420
H      32.54160     10.83480     29.96260
H      33.70610     11.29760     31.00970
O      32.94450     18.17940     36.87160
H      32.84530     17.20830     37.08870
H      33.45900     18.27970     36.02000
O      40.19440      8.38256     27.18810
H      39.29980     41.42650     26.74480
H      40.90510      8.65928     26.54140
O      23.50670     21.86710     10.42280
H      23.38760     21.82840     11.41490
H      22.80550     21.30770      9.98085
O      11.67950     29.57570     18.09630
H      11.72770     28.91170     18.84240
H      10.72580     29.70150     17.82300
O      39.48320     30.46340     20.82220
H      39.32790     29.86630     20.03520
H      38.60570     30.70000     21.23930
O      17.90990     21.81650     12.45090
H      18.21000     22.73650     12.70300
H      17.86980     21.74030     11.45460
O      39.24420     23.49320     29.08370
H      39.29780     23.96230     29.96520
H      39.91350     22.75060     29.06000
O      11.18960     10.59610     21.47070
H      11.85740      9.88770     21.69900
H      10.57330     10.25670     20.76000
O      22.97320     26.14360     14.73070
H      23.78280     25.89350     15.26180
H      22.71780     27.08810     14.93720
O      20.03220     16.01580     24.20190
H      19.36190     15.43020     24.65770
H      20.94700     15.80670     24.54730
O      34.76460     38.71420     33.83710
H      34.60360     39.46830     34.47390
H      34.86790     37.86160     34.34950
O      14.79280     31.37420      9.27103
H      14.54070     30.41540      9.40173
H      15.04830     31.52450     41.30270
O       9.28909     23.27780     32.34980
H      41.49370     22.65850     32.41810
H       9.69496     23.20290     31.43890
O      27.74990     38.71880     17.79390
H      27.26780     39.13420     17.02240
H      28.73430     38.73380     17.61890
O      10.49900     20.72530     34.40830
H      10.07640     20.29370     33.61130
H      11.49360     20.71450     34.30510
O      28.45140     20.82040     12.63040
H      29.30220     20.31240     12.49620
H      27.86450     20.32460     13.27050
O      21.72880     33.26790     12.61830
H      21.84620     32.59860     13.35190
H      20.89690     33.05720     12.10490
O      40.38340     34.29300     19.20030
H      39.73920     34.84020     19.73480
H      39.88330     33.59360     18.68980
O       9.79767     38.82340     21.78490
H       9.45559     39.02270     20.86660
H       9.31045     39.38730     22.45170
O      37.02740     37.61540     13.12610
H      37.40490     38.45090     13.52550
H      36.04850     37.56430     13.32390
O      22.26210     30.76750     24.46850
H      22.12420     30.63960     23.48630
H      21.64790     31.48330     24.80080
O      12.89340     39.37090     28.21710
H      12.86000     38.93850     29.11820
H      12.83260     40.36360     28.32130
O       9.87657     23.05780     16.56120
H      10.15500     22.11590     16.74930
H      10.54320     23.68820     16.95890
O      25.94360     11.59540     37.37220
H      26.17750     10.62600     37.44680
H      25.24900     11.71710     36.66310
O      37.15520     39.25950     32.66300
H      36.24890     39.08670     33.04880
H      37.85080     38.83600     33.24330
O      35.62710     21.66090     21.21210
H      35.52490     20.70260     20.94490
H      36.30560     22.10050     20.62360
O      29.63250     28.48690     13.12450
H      29.29430     28.80690     14.00950
H      29.78060     29.27050     12.52110
O      14.44230     30.51890     32.69150
H      14.80960     30.50420     33.62150
H      13.64550     31.12220     32.65720
O      37.58730      8.45615     34.96820
H      37.99380      8.53260     34.05780
H      37.75540      9.29857     35.48020
O      38.40190     29.52920     23.47880
H      37.70320     29.78260     22.80980
H      37.96200     29.15050     24.29300
O      40.91770     34.06730     41.29110
H      39.95930     34.35090     41.25820
H      41.01940     33.18290     40.83570
O      35.06450     13.08590     31.20760
H      35.42900     13.93510     31.58980
H      35.67340     12.32750     31.44010
O       9.87433     26.31330     17.49330
H      10.00660     26.74130     16.59930
H      10.57970     25.61940     17.63830
O      40.46630     37.17990     24.45260
H      39.54470     36.79210     24.43690
H      41.12120     36.49610     24.13080
O      14.31530     34.13190     26.16900
H      14.81310     33.29580     25.93870
H      14.03380     34.59460     25.32840
O      34.75990     18.24060     32.04220
H      35.32790     17.47270     31.74610
H      35.14130     19.09390     31.68670
O      27.57740     23.32170     40.07290
H      28.27080     23.88370     39.62200
H      27.16920     22.69760     39.40660
O      15.30900     18.13220     19.02970
H      15.76250     18.68980     18.33440
H      15.61420     18.41850     19.93790
O      23.33550     15.15910     19.79730
H      22.53040     15.41050     19.26000
H      23.22670     15.48910     20.73500
O      14.69320     29.00650     30.15160
H      14.69720     29.33870     31.09480
H      13.97640     28.31760     30.04380
O      21.14580     18.70130     15.52650
H      22.03980     18.36940     15.82740
H      20.80040     18.11250     14.79580
O      19.25370     12.54850     31.90770
H      18.42700     12.81610     32.40260
H      19.27860     13.01510     31.02360
O      24.53140      9.91606     15.78900
H      23.73250     10.48300     15.98980
H      25.11660     10.38660     15.12870
O      34.09790      9.12863     14.29540
H      34.71070      9.60956     14.92240
H      33.16690      9.47618     14.40710
O      10.16500     10.48690     29.11180
H       9.42752     10.68270     29.75810
H       9.83510     10.62450     28.17790
O      23.64670     39.50860     20.85840
H      24.55970     39.23860     21.16420
H      23.71610     40.31950     20.27730
O      24.28500     36.65440     18.24360
H      24.47130     35.73380     17.90030
H      25.12300     37.04350     18.62610
O      35.09950     16.92690     25.19340
H      34.22650     17.27080     25.53930
H      35.35660     17.43620     24.37220
O      25.48970     17.44990     29.58530
H      25.57270     16.70240     30.24440
H      26.07920     18.20780     29.86480
O      41.13330     24.92610     14.11370
H      40.19310     25.12580     14.38960
H      41.12560     24.35000     13.29630
O      35.36790     12.64700     11.18480
H      35.29650     11.70590     10.85460
H      36.31660     12.95470     11.11210
O      27.01590     22.46310     10.88550
H      26.37200     23.08290     11.33400
H      27.43500     21.86580     11.56930
O      34.25330     19.08940     21.84610
H      35.12280     19.07560     22.33990
H      33.51450     19.32240     22.47850
O      16.99120     41.45340     16.02230
H      16.25910      8.62957     15.36090
H      17.65400     40.81270     15.63480
O      40.53120     28.77030     41.33760
H      40.94390     28.11640      8.98487
H      39.61980     29.02110      8.67707
O      26.05070     33.90130     20.60800
H      25.60620     34.54910     21.22660
H      25.92860     34.20520     19.66320
O      30.66550     23.03490     22.68710
H      30.82930     23.98280     22.41390
H      29.70330     22.92070     22.93410
O      39.34200     32.70090     31.82690
H      39.36700     31.70600     31.92490
H      40.24050     33.02990     31.53640
O      38.49940     28.64160     38.75710
H      39.32400     28.97780     39.21190
H      37.87100     28.26830     39.43960
O      19.87540     20.67300     13.88670
H      19.05760     20.97550     13.39710
H      20.55470     20.34480     13.23030
O      41.26770     24.94890     34.16520
H      41.60130     24.38880     33.40690
H      40.26820     24.92430     34.18320
O      10.42650     16.92090     38.57390
H      11.39400     16.85720     38.32930
H       9.87965     17.03390     37.74430
O      36.46590     32.96160     25.99490
H      35.93450     32.96290     25.14780
H      37.07760     33.75260     26.00580
O      23.52700     18.66740     38.25570
H      23.36820     18.64680     37.26860
H      22.71080     18.33950     38.73150
O      14.84650     31.44870     25.98490
H      14.33880     31.44320     26.84640
H      15.28950     30.56190     25.85330
O      33.53050     33.09380     41.03760
H      34.35070     32.70170      8.46740
H      32.82590     32.38830     40.96090
O      19.53190     40.70670      9.51672
H      18.73720     41.30620      9.42230
H      19.95760     40.85560     10.40930
O      13.26710     25.26610     27.57070
H      13.55870     24.52520     28.17560
H      14.06990     25.76400     27.24250
O       8.80905     33.39730     30.21000
H       8.82850     33.94900     31.04380
H       8.80894     33.99950     29.41170
O      16.43220     39.78070     40.46880
H      17.05950     39.11550     40.87370
H      15.81520     40.12950     41.17430
O      16.04600     10.54220     26.50600
H      16.38930      9.74216     26.99800
H      16.54400     11.35630     26.80500
O      14.90970     24.16250     16.36090
H      14.27170     23.46330     16.03820
H      15.75370     23.72560     16.67170
O      15.05190      9.17134     13.75030
H      15.75260      8.97375     13.06470
H      14.46100      9.90756     13.42040
O      12.17900     32.35720      9.83413
H      11.49260     32.91490      9.36735
H      11.79430     31.45710     10.03860
O      33.66480     19.97040     38.72910
H      33.39310     19.38230     37.96730
H      34.65140     19.89450     38.87330
O      40.39780     35.02740     34.75180
H      41.09220     35.65820     35.09800
H      39.51560     35.49600     34.70490
O      37.85100     16.80720     35.24280
H      38.78450     16.59600     35.53270
H      37.87470     17.28480     34.36450
O      17.43190     33.63210     30.45330
H      17.98380     33.06020     31.06010
H      18.02670     34.08230     29.78730
O       8.94505     21.49610     36.81400
H       9.68982     21.41600     37.47650
H       9.27612     21.23520     35.90720
O      38.62180     39.30400     36.39070
H      38.26700     39.98490     35.75010
H      39.61730     39.25650     36.30930
O      32.83520     29.26780     29.99070
H      32.10810     29.44930     29.32870
H      32.52730     28.57440     30.64220
O      16.62600     35.19960     36.40560
H      16.45870     34.66000     35.58040
H      17.61010     35.25320     36.57500
O      20.31170     40.78500     32.59410
H      20.15990     41.23300     31.71310
H      20.62570     41.46010     33.26160
O      12.38450     26.85150     14.21960
H      12.68240     26.05870     13.68800
H      11.38530     26.87530     14.25130
O      11.23230     15.92720     31.06970
H      11.76030     15.15330     30.72000
H      10.25600     15.74450     30.95330
O      40.22750     13.83900     38.46420
H      40.84540     13.17070     38.04990
H      39.34100     13.41030     38.63810
O      24.78940     13.16610     15.79440
H      23.83770     12.99850     16.05140
H      25.05650     12.52920     15.07120
O      35.81050     22.52060     12.71040
H      34.94290     22.94760     12.96530
H      35.63270     21.72160     12.13590
O      30.27090     13.90670     27.68540
H      30.14100     13.28550     28.45820
H      31.08050     13.63000     27.16780
O      40.79450     11.23270     16.03850
H      40.22400     11.92550     16.47960
H      40.22400     10.46120     15.75700
O      16.09240     33.57460     23.45240
H      17.02790     33.35740     23.73100
H      15.74540     32.85030     22.85650
O      12.69850     29.09870     15.59090
H      12.47170     28.27060     15.07810
H      12.31720     29.03450     16.51310
O      38.00140     14.04770     26.02730
H      37.51970     13.89740     25.16400
H      37.79710     14.96550     26.36770
O      12.09320     17.44320     21.56370
H      12.39470     16.69190     22.15080
H      12.55130     18.28760     21.84130
O      21.41250     19.78650     12.00450
H      21.32530     20.03830     11.04060
H      21.75620     18.85010     12.07460
O      30.13530     34.58860     17.04020
H      30.19970     33.59100     17.06440
H      30.79810     34.98100     17.67790
O      25.08250     16.40860     39.00530
H      25.31680     16.58800     39.96080
H      24.62150     17.20780     38.61940
O      12.15830     27.74800     29.92480
H      12.46400     27.03100     30.55120
H      11.60310     28.41280     30.42460
O      28.36700      9.37916     18.40660
H      28.70110     41.65060     19.02040
H      27.89680      8.95934     17.63020
O      22.09980     11.60020     18.16470
H      22.10940     11.72980     17.17310
H      21.15700     11.63520     18.49620
O      12.84270     10.77900     13.05380
H      12.44310     10.51230     12.17680